75
 Time: 0 fs -- step count: 0
Na  0  0  0
Cl  0  0  2.8
Na  0  0  5.6
Cl  0  2.8  0
Na  0  2.8  2.8
Cl  0  2.8  5.6
Na  0  5.6  0
Cl  0  5.6  2.8
Na  0  5.6  5.6
Cl  2.8  0  0
Na  2.8  0  2.8
Cl  2.8  0  5.6
Na  2.8  2.8  0
Cl  2.8  2.8  2.8
Na  2.8  2.8  5.6
Cl  2.8  5.6  0
Na  2.8  5.6  2.8
Cl  2.8  5.6  5.6
Na  5.6  0  0
Cl  5.6  0  2.8
Na  5.6  0  5.6
Cl  5.6  2.8  0
Na  5.6  2.8  2.8
Cl  5.6  2.8  5.6
Na  5.6  5.6  0
Cl  5.6  5.6  2.8
Na  5.6  5.6  5.6
O  8  8  8
H  8  9  8
H  8.81362  7.4186  8
O  8  5  8
H  8  6  8
H  8.81362  4.4186  8
O  8  2  8
H  8  3  8
H  8.81362  1.4186  8
O  8  -1  8
H  8  0  8
H  8.81362  -2.4186  8
O  8  8  -2
H  8  9  -2
H  8.81362  7.4186  -2
O  8  5  -2
H  8  6  -2
H  8.81362  4.4186  -2
O  8  2  -2
H  8  3  -2
H  8.81362  1.4186  -2
O  8  -1  -2
H  8  0  -2
H  8.81362  -2.4186  -2
O  -2  8  8
H  -2  9  8
H  -2.81362  7.4186  8
O  -2  5  8
H  -2  6  8
H  -2.81362  4.4186  8
O  -2  2  8
H  -2  3  8
H  -2.81362  1.4186  8
O  -2  -1  8
H  -2  0  8
H  -2.81362  -2.4186  8
O  -2  8  -2
H  -2  9  -2
H  -2.81362  7.4186  -2
O  -2  5  -2
H  -2  6  -2
H  -2.81362  4.4186  -2
O  -2  2  -2
H  -2  3  -2
H  -2.81362  1.4186  -2
O  -2  -1  -2
H  -2  0  -2
H  -2.81362  -2.4186  -2
75
 Time: 1 fs -- step count: 10
Na  -4.86327e-05  -2.84134e-05  -9.21393e-05
Cl  -6.32021e-05  -5.80605e-05  2.8
Na  -3.49864e-05  -2.30001e-05  5.60008
Cl  -4.93485e-05  2.80002  -1.65722e-05
Na  -5.58633e-05  2.79999  2.8
Cl  -5.66659e-05  2.80001  5.60002
Na  -3.22434e-05  5.59999  -8.0627e-05
Cl  -6.60702e-05  5.60006  2.8
Na  -2.04956e-05  5.6  5.60007
Cl  2.8  -6.00925e-05  -4.35884e-05
Na  2.8  -6.63575e-05  2.8
Cl  2.8  -5.99365e-05  5.60004
Na  2.8  2.79999  -8.9855e-05
Cl  2.8  2.80001  2.8
Na  2.8  2.79999  5.60009
Cl  2.8  5.60007  -4.52837e-05
Na  2.8  5.60006  2.8
Cl  2.8  5.60007  5.60004
Na  5.60005  -2.18546e-05  -7.74103e-05
Cl  5.60006  -5.84007e-05  2.8
Na  5.60004  -1.91958e-05  5.60007
Cl  5.60005  2.80001  -2.48016e-05
Na  5.60006  2.79999  2.8
Cl  5.60005  2.80001  5.60003
Na  5.60004  5.6  -6.74843e-05
Cl  5.60006  5.60007  2.8
Na  5.60003  5.6  5.60006
O  8.00128  8.00045  7.99995
H  7.99823  8.97902  8.00025
H  8.79634  7.43191  8.00034
O  8.00134  5.00056  7.99993
H  7.99642  5.97935  8.00079
H  8.79582  4.43112  8.00019
O  8.00142  2.00046  8.00001
H  7.99529  2.97919  7.99972
H  8.7957  1.4312  8.00013
O  8.0003  -0.998928  7.99991
H  7.99757  -0.0223619  8.00073
H  8.80961  -2.41246  8.00026
O  8.00127  8.00044  -1.99995
H  7.99826  8.97908  -2.00023
H  8.79643  7.43196  -2.00032
O  8.00131  5.00058  -1.99992
H  7.99672  5.97935  -2.00087
H  8.79586  4.43103  -2.00017
O  8.00144  2.00044  -2.00003
H  7.99507  2.97914  -1.99958
H  8.79571  1.43129  -2.00011
O  8.00027  -0.998917  -1.9999
H  7.99787  -0.0222883  -2.00082
H  8.80967  -2.41251  -2.00023
O  -2.00129  8.00044  7.99993
H  -1.9982  8.97908  8.00029
H  -2.79639  7.43198  8.00044
O  -2.00133  5.00058  7.9999
H  -1.99651  5.97935  8.00109
H  -2.79583  4.43098  8.00024
O  -2.00143  2.00044  8.00003
H  -1.99516  2.97914  7.9995
H  -2.79569  1.43134  8.00015
O  -2.0003  -0.998917  7.99988
H  -1.99766  -0.0222882  8.00103
H  -2.80963  -2.41253  8.00032
O  -2.00127  8.00042  -1.99993
H  -1.99824  8.97915  -2.00026
H  -2.79651  7.43205  -2.00042
O  -2.0013  5.00061  -1.99988
H  -1.99693  5.97937  -2.00129
H  -2.79589  4.43083  -2.00022
O  -2.00146  2.0004  -2.00005
H  -1.99482  2.97906  -1.99925
H  -2.7957  1.43149  -2.00012
O  -2.00025  -0.998899  -1.99986
H  -1.99808  -0.0221874  -2.00124
H  -2.80971  -2.4126  -2.0003
75
 Time: 2 fs -- step count: 20
Na  -0.000185654  -0.000108308  -0.000349945
Cl  -0.000240769  -0.000221576  2.80001
Na  -0.000133798  -8.7754e-05  5.60032
Cl  -0.000188786  2.80006  -6.51807e-05
Na  -0.000214178  2.79996  2.79999
Cl  -0.000216248  2.80005  5.60009
Na  -0.000122643  5.59997  -0.000305071
Cl  -0.000251608  5.60025  2.80001
Na  -7.83419e-05  5.59999  5.60027
Cl  2.80001  -0.000229153  -0.000166694
Na  2.8  -0.000253517  2.79999
Cl  2.8  -0.000228575  5.60016
Na  2.79999  2.79997  -0.000342341
Cl  2.8  2.80002  2.8
Na  2.8  2.79997  5.60035
Cl  2.8  5.60026  -0.000173246
Na  2.8  5.60022  2.79999
Cl  2.8  5.60025  5.60017
Na  5.6002  -8.34815e-05  -0.000294006
Cl  5.60023  -0.000222848  2.80001
Na  5.60015  -7.33713e-05  5.60028
Cl  5.60018  2.80005  -9.60808e-05
Na  5.60023  2.79996  2.79999
Cl  5.6002  2.80004  5.60011
Na  5.60014  5.59999  -0.000255511
Cl  5.60024  5.60025  2.80001
Na  5.6001  5.6  5.60024
O  8.00499  8.00177  7.9998
H  7.99324  8.91838  8.00094
H  8.74609  7.47013  8.00127
O  8.0052  5.00218  7.99973
H  7.98671  5.91952  8.00297
H  8.74415  4.46715  8.00073
O  8.0055  2.00182  8.00005
H  7.98246  2.9189  7.99894
H  8.74365  1.46752  8.00049
O  8.00115  -0.995788  7.99965
H  7.99112  -0.0874305  8.00277
H  8.79829  -2.39511  8.00099
O  8.00494  8.00173  -1.99981
H  7.99338  8.9186  -2.00086
H  8.74643  7.47029  -2.0012
O  8.00509  5.00226  -1.9997
H  7.98784  5.91951  -2.0033
H  8.74432  4.4668  -2.00066
O  8.00556  2.00174  -2.0001
H  7.98162  2.91872  -1.99842
H  8.74369  1.46786  -2.00041
O  8.00102  -0.995748  -1.99963
H  7.99223  -0.087153  -2.00311
H  8.79852  -2.39528  -2.00089
O  -2.005  8.00173  7.99975
H  -1.99315  8.9186  8.00108
H  -2.74627  7.47039  8.00164
O  -2.00517  5.00226  7.99962
H  -1.98704  5.91951  8.0041
H  -2.74422  4.46662  8.00089
O  -2.00555  2.00173  8.00011
H  -1.98194  2.91872  7.9981
H  -2.74359  1.46805  8.00054
O  -2.00112  -0.995748  7.99953
H  -1.99146  -0.0871515  8.00388
H  -2.79839  -2.39536  8.00124
O  -2.00495  8.00166  -1.99975
H  -1.99329  8.91887  -2.00099
H  -2.74672  7.47065  -2.00159
O  -2.00502  5.0024  -1.99955
H  -1.9886  5.91957  -2.00486
H  -2.74445  4.46605  -2.00085
O  -2.00565  2.0016  -2.0002
H  -1.98067  2.91843  -1.99714
H  -2.74361  1.46861  -2.00045
O  -2.00096  -0.99568  -1.99947
H  -1.99302  -0.0867738  -2.00467
H  -2.79868  -2.39561  -2.00116
75
 Time: 3 fs -- step count: 30
Na  -0.000411157  -0.000239131  -0.000768184
Cl  -0.0005311  -0.000490263  2.80002
Na  -0.000297176  -0.000194029  5.6007
Cl  -0.000419315  2.80014  -0.000151367
Na  -0.000477542  2.79992  2.79997
Cl  -0.000478378  2.8001  5.6002
Na  -0.000269886  5.59994  -0.000665216
Cl  -0.000554678  5.60055  2.80001
Na  -0.000173837  5.59999  5.60059
Cl  2.80001  -0.000506362  -0.000370088
Na  2.8  -0.000561891  2.79999
Cl  2.80001  -0.000505147  5.60037
Na  2.79999  2.79992  -0.000755301
Cl  2.8  2.80004  2.80001
Na  2.79999  2.79993  5.60076
Cl  2.80001  5.60056  -0.0003849
Na  2.80001  5.60048  2.79999
Cl  2.8  5.60056  5.60038
Na  5.60043  -0.00018495  -0.000645352
Cl  5.60051  -0.000492977  2.80002
Na  5.60033  -0.00016271  5.6006
Cl  5.60039  2.8001  -0.000217874
Na  5.60051  2.79992  2.79998
Cl  5.60044  2.80008  5.60024
Na  5.6003  5.59998  -0.000557769
Cl  5.60053  5.60055  2.80001
Na  5.60022  5.6  5.60051
O  8.01134  8.00413  7.99956
H  7.98511  8.81393  8.00204
H  8.65873  7.53506  8.00274
O  8.01175  5.00501  7.99941
H  7.97192  5.81603  8.00641
H  8.65463  4.52871  8.00157
O  8.01241  2.00423  8.00011
H  7.96275  2.81476  7.99767
H  8.65336  1.52965  8.00105
O  8.00249  -0.990259  7.99925
H  7.9818  -0.200768  8.00599
H  8.77967  -2.36637  8.00218
O  8.01124  8.00403  -1.99958
H  7.98541  8.81443  -2.00185
H  8.65948  7.53542  -2.00257
O  8.01152  5.0052  -1.99934
H  7.97436  5.81599  -2.00712
H  8.65505  4.5279  -2.00143
O  8.01254  2.00404  -2.00021
H  7.96093  2.81439  -1.99654
H  8.65342  1.53043  -2.00086
O  8.00223  -0.990172  -1.99919
H  7.98418  -0.200173  -2.00673
H  8.78018  -2.36675  -2.00198
O  -2.01135  8.00403  7.99947
H  -1.98491  8.81443  8.00234
H  -2.65911  7.53563  8.00353
O  -2.01168  5.0052  7.99919
H  -1.97263  5.81599  8.00884
H  -2.65483  4.52752  8.00194
O  -2.01251  2.00404  8.00025
H  -1.96163  2.81439  7.99584
H  -2.65318  1.53083  8.00115
O  -2.00244  -0.990172  7.99898
H  -1.98252  -0.200166  8.00838
H  -2.77988  -2.36695  8.00274
O  -2.01124  8.00389  -1.99947
H  -1.98522  8.81507  -2.00215
H  -2.6601  7.53619  -2.00342
O  -2.01135  5.00549  -1.99903
H  -1.97601  5.81607  -2.01051
H  -2.6554  4.52622  -2.00184
O  -2.01274  2.00374  -2.00044
H  -1.95886  2.81379  -1.99375
H  -2.65319  1.53209  -2.00094
O  -2.00208  -0.990022  -1.99884
H  -1.98589  -0.199364  -2.0101
H  -2.78053  -2.36751  -2.00255
75
 Time: 4 fs -- step count: 40
Na  -0.00072596  -0.000419946  -0.00133861
Cl  -0.000931467  -0.000863746  2.80004
Na  -0.000526789  -0.000341346  5.60122
Cl  -0.000742416  2.80024  -0.000284494
Na  -0.000850457  2.79986  2.79996
Cl  -0.000842276  2.80018  5.60036
Na  -0.000471974  5.5999  -0.00114721
Cl  -0.000971934  5.60096  2.80002
Na  -0.000307689  5.59998  5.60101
Cl  2.80002  -0.0008904  -0.000655068
Na  2.8  -0.000992083  2.79997
Cl  2.80002  -0.000888425  5.60065
Na  2.79998  2.79987  -0.00132507
Cl  2.79999  2.80007  2.80002
Na  2.79998  2.79987  5.60134
Cl  2.80001  5.60099  -0.000682006
Na  2.80001  5.60086  2.79998
Cl  2.80001  5.60098  5.60068
Na  5.60076  -0.000326325  -0.00112431
Cl  5.60089  -0.000868273  2.80003
Na  5.60059  -0.000287423  5.60105
Cl  5.6007  2.80017  -0.000397049
Na  5.60091  2.79986  2.79996
Cl  5.60078  2.80014  5.60043
Na  5.60053  5.59997  -0.000963445
Cl  5.60093  5.60096  2.80002
Na  5.60039  5.60002  5.60089
O  8.01984  8.00764  7.99926
H  7.97345  8.67155  8.00349
H  8.54178  7.61919  8.00469
O  8.02047  5.00919  7.99899
H  7.95307  5.67365  8.01092
H  8.53467  4.60872  8.00271
O  8.02154  2.0079  8.00019
H  7.93749  2.67155  7.99594
H  8.53317  1.60984  8.00176
O  8.00433  -0.983287  7.99869
H  7.97063  -0.347944  8.01038
H  8.75376  -2.32603  8.00383
O  8.01968  8.00747  -1.99928
H  7.97397  8.67226  -2.00316
H  8.54292  7.61991  -2.0044
O  8.0201  5.0095  -1.99888
H  7.95722  5.67364  -2.01215
H  8.53504  4.60756  -2.00247
O  8.02176  2.00758  -2.00036
H  7.93435  2.67097  -1.99399
H  8.53348  1.61103  -2.00144
O  8.00386  -0.983116  -1.99859
H  7.97476  -0.347219  -2.01165
H  8.75467  -2.32673  -2.00347
O  -2.01987  8.00747  7.99909
H  -1.97312  8.67224  8.00399
H  -2.54244  7.62014  8.00603
O  -2.02037  5.0095  7.99861
H  -1.95426  5.67359  8.01507
H  -2.53468  4.60693  8.00335
O  -2.02169  2.00759  8.00042
H  -1.93556  2.671  7.99279
H  -2.53322  1.61158  8.00191
O  -2.00422  -0.983113  7.99823
H  -1.97188  -0.347271  8.01449
H  -2.75414  -2.32706  8.0048
O  -2.01968  8.00724  -1.99909
H  -1.97365  8.67315  -2.00367
H  -2.54396  7.62124  -2.00585
O  -2.01984  5.00998  -1.99834
H  -1.96003  5.67379  -2.01795
H  -2.53518  4.60504  -2.00318
O  -2.02206  2.00708  -2.00075
H  -1.93076  2.67007  -1.98918
H  -2.53364  1.61348  -2.00155
O  -2.00361  -0.982827  -1.99798
H  -1.97769  -0.3463  -2.01746
H  -2.7553  -2.32808  -2.00448
75
 Time: 5 fs -- step count: 50
Na  -0.00113132  -0.000651001  -0.00205084
Cl  -0.00143845  -0.00134142  2.80005
Na  -0.000824809  -0.000530054  5.60187
Cl  -0.00115961  2.80036  -0.000476509
Na  -0.00133852  2.79979  2.79993
Cl  -0.00130675  2.80027  5.60059
Na  -0.000727373  5.59987  -0.00173373
Cl  -0.00149902  5.60148  2.80004
Na  -0.000481556  5.6  5.60153
Cl  2.80004  -0.00137943  -0.0010233
Na  2.80001  -0.00154488  2.79996
Cl  2.80003  -0.0013767  5.60101
Na  2.79996  2.7998  -0.00204679
Cl  2.79999  2.80011  2.80002
Na  2.79998  2.7998  5.60206
Cl  2.80002  5.60152  -0.00106681
Na  2.80002  5.60135  2.79997
Cl  2.80001  5.60152  5.60106
Na  5.60118  -0.000508705  -0.00172169
Cl  5.60138  -0.00134795  2.80005
Na  5.60091  -0.000448505  5.60161
Cl  5.60109  2.80026  -0.000642499
Na  5.60143  2.7998  2.79994
Cl  5.60121  2.80022  5.6007
Na  5.60081  5.59998  -0.00145891
Cl  5.60144  5.60149  2.80003
Na  5.6006  5.60004  5.60135
O  8.02123  8.00919  7.99869
H  7.94367  8.66394  8.00648
H  8.55634  7.59911  8.0089
O  8.0227  5.01207  7.9982
H  7.91141  5.65925  8.01973
H  8.5404  4.58209  8.00532
O  8.0241  2.01071  8.00033
H  7.88409  2.65224  7.99257
H  8.54507  1.57883  8.00316
O  8.00743  -0.989374  7.9977
H  7.94566  -0.299445  8.02039
H  8.72053  -2.27367  8.00592
O  8.02101  8.00898  -1.99874
H  7.94479  8.66315  -2.00587
H  8.55734  7.60138  -2.00835
O  8.02227  5.01229  -1.99801
H  7.91867  5.66121  -2.02205
H  8.53794  4.5823  -2.0049
O  8.02435  2.01035  -2.00062
H  7.87852  2.65054  -1.98904
H  8.54756  1.57971  -2.00253
O  8.00661  -0.989068  -1.99752
H  7.95373  -0.299067  -2.02284
H  8.72198  -2.27481  -2.00536
O  -2.02123  8.00907  7.9984
H  -1.94322  8.66296  8.00741
H  -2.55782  7.60073  8.01143
O  -2.02272  5.01239  7.99753
H  -1.91347  5.65994  8.02728
H  -2.53737  4.58107  8.00662
O  -2.02417  2.01037  8.00073
H  -1.88066  2.6511  7.98685
H  -2.54818  1.57984  8.00334
O  -2.00723  -0.989015  7.99689
H  -1.94813  -0.29992  8.02838
H  -2.72115  -2.27531  8.00742
O  -2.02098  8.00878  -1.99841
H  -1.94441  8.66188  -2.00682
H  -2.55938  7.60383  -2.01108
O  -2.02213  5.01278  -1.99705
H  -1.92367  5.66237  -2.03263
H  -2.53351  4.5812  -2.00636
O  -2.02459  2.0098  -2.0013
H  -1.8722  2.64829  -1.98028
H  -2.55219  1.58109  -2.00257
O  -2.00614  -0.988511  -1.99644
H  -1.95944  -0.299523  -2.0341
H  -2.72298  -2.27697  -2.00691
75
 Time: 6 fs -- step count: 60
Na  -0.00162538  -0.000937821  -0.00289545
Cl  -0.00205023  -0.00192152  2.80007
Na  -0.00119058  -0.000764357  5.60263
Cl  -0.00167193  2.8005  -0.000735559
Na  -0.00194375  2.7997  2.79991
Cl  -0.00187103  2.80037  5.60089
Na  -0.0010401  5.59985  -0.00241799
Cl  -0.00213323  5.60211  2.80005
Na  -0.000699591  5.60002  5.60214
Cl  2.80005  -0.0019711  -0.00147593
Na  2.80001  -0.00222146  2.79995
Cl  2.80004  -0.00196777  5.60146
Na  2.79995  2.79971  -0.00291658
Cl  2.79999  2.80015  2.80003
Na  2.79997  2.79972  5.60294
Cl  2.80003  5.60217  -0.00154032
Na  2.80002  5.60195  2.79996
Cl  2.80002  5.60216  5.60153
Na  5.60169  -0.000736708  -0.00242944
Cl  5.60197  -0.00193023  2.80007
Na  5.60131  -0.000649695  5.60228
Cl  5.60158  2.80037  -0.00096016
Na  5.60207  2.79971  2.79991
Cl  5.60174  2.80031  5.60103
Na  5.60115  5.59999  -0.00203809
Cl  5.60206  5.60212  2.80005
Na  5.60086  5.60009  5.60189
O  8.01799  8.00632  7.99787
H  7.89345  8.80222  8.01125
H  8.66513  7.50303  8.01502
O  8.02081  5.01075  7.99699
H  7.84234  5.79293  8.03387
H  8.63872  4.47482  8.00915
O  8.02329  2.00905  8.00056
H  7.79627  2.77897  7.98708
H  8.6449  1.47219  8.00512
O  8.01145  -1.00166  7.99644
H  7.91327  -0.165609  8.03377
H  8.67918  -2.20775  8.00839
O  8.01764  8.00599  -1.99796
H  7.89528  8.80132  -2.01023
H  8.66711  7.50666  -2.01411
O  8.02006  5.01106  -1.99668
H  7.85481  5.79647  -2.03791
H  8.63534  4.4743  -2.0085
O  8.02373  2.00858  -2.00105
H  7.78682  2.77539  -1.98096
H  8.64863  1.4742  -2.00403
O  8.01017  -1.00127  -1.99614
H  7.92652  -0.164407  -2.03786
H  8.68128  -2.2095  -2.0076
O  -2.018  8.00611  7.9974
H  -1.89255  8.80092  8.01289
H  -2.66747  7.50586  8.01925
O  -2.02082  5.01126  7.99587
H  -1.84591  5.79374  8.04682
H  -2.63424  4.47241  8.01146
O  -2.02344  2.00856  8.00124
H  -1.79051  2.77665  7.97718
H  -2.64942  1.47459  8.00532
O  -2.01114  -1.00117  7.99517
H  -1.91723  -0.166032  8.04699
H  -2.68011  -2.21018  8.01051
O  -2.01759  8.00564  -1.99743
H  -1.89445  8.79964  -2.01191
H  -2.67042  7.51088  -2.01869
O  -2.01979  5.01183  -1.99509
H  -1.86338  5.79805  -2.0561
H  -2.62878  4.47138  -2.01116
O  -2.02414  2.00782  -2.00218
H  -1.77621  2.77074  -1.96581
H  -2.65531  1.47763  -2.00394
O  -2.00942  -1.0005  -1.99444
H  -1.93577  -0.164725  -2.05647
H  -2.68277  -2.21273  -2.00977
75
 Time: 7 fs -- step count: 70
Na  -0.00220676  -0.00128655  -0.00386643
Cl  -0.00276592  -0.0026018  2.8001
Na  -0.00162334  -0.00104875  5.60352
Cl  -0.0022797  2.80067  -0.00106778
Na  -0.00266595  2.79961  2.79988
Cl  -0.00253382  2.8005  5.60127
Na  -0.0014199  5.59984  -0.00320135
Cl  -0.0028728  5.60285  2.80006
Na  -0.000968779  5.60007  5.60284
Cl  2.80007  -0.00266292  -0.00201344
Na  2.80001  -0.00302302  2.79993
Cl  2.80005  -0.00265931  5.602
Na  2.79993  2.79962  -0.00393134
Cl  2.79999  2.8002  2.80004
Na  2.79995  2.79963  5.60396
Cl  2.80003  5.60292  -0.00210275
Na  2.80003  5.60267  2.79995
Cl  2.80002  5.60291  5.60209
Na  5.60228  -0.00101504  -0.00324227
Cl  5.60267  -0.00261299  2.80009
Na  5.60177  -0.000894735  5.60304
Cl  5.60215  2.80049  -0.00135393
Na  5.60283  2.79962  2.79989
Cl  5.60236  2.80041  5.60144
Na  5.60155  5.60003  -0.0027001
Cl  5.60277  5.60286  2.80006
Na  5.60117  5.60015  5.6025
O  8.01674  8.00417  7.99708
H  7.84587  8.90364  8.01568
H  8.74058  7.43163  8.02063
O  8.02065  5.01015  7.99584
H  7.77805  5.89078  8.0475
H  8.70485  4.39299  8.01249
O  8.02424  2.00782  8.00079
H  7.71376  2.87054  7.98146
H  8.71186  1.39303  8.00697
O  8.01577  -1.0119  7.99518
H  7.88432  -0.0796661  8.04632
H  8.6281  -2.12552  8.01115
O  8.01624  8.00369  -1.99721
H  7.84828  8.90304  -2.01427
H  8.74365  7.43646  -2.01938
O  8.01955  5.0106  -1.9954
H  7.79559  5.89555  -2.05325
H  8.70092  4.39131  -2.01161
O  8.02486  2.00719  -2.00147
H  7.70043  2.86526  -1.97274
H  8.71657  1.39641  -2.00548
O  8.01403  -1.01139  -1.99476
H  7.90238  -0.0776214  -2.05195
H  8.631  -2.12811  -2.01009
O  -2.01676  8.00383  7.99644
H  -1.84444  8.90243  8.01796
H  -2.74372  7.43562  8.02643
O  -2.0206  5.01089  7.99428
H  -1.78307  5.89158  8.06563
H  -2.69934  4.38891  8.01567
O  -2.02448  2.00714  8.00174
H  -1.70573  2.86708  7.96739
H  -2.71736  1.39707  8.00722
O  -2.01534  -1.01126  7.99345
H  -1.88962  -0.0798777  8.06442
H  -2.62945  -2.12897  8.01395
O  -2.01618  8.00317  -1.99649
H  -1.84689  8.90147  -2.01661
H  -2.74816  7.44235  -2.02564
O  -2.01909  5.01172  -1.9932
H  -1.80758  5.89743  -2.07876
H  -2.69288  4.38604  -2.01528
O  -2.02551  2.00615  -2.00304
H  -1.68557  2.85838  -1.95116
H  -2.72472  1.40224  -2.00534
O  -2.013  -1.01038  -1.99245
H  -1.91486  -0.0776122  -2.07744
H  -2.63313  -2.13273  -2.01294
75
 Time: 7.99999 fs -- step count: 80
Na  -0.00287512  -0.0017015  -0.00495721
Cl  -0.00358397  -0.0033801  2.80013
Na  -0.00212315  -0.00138639  5.60451
Cl  -0.00298293  2.80085  -0.00148126
Na  -0.00350596  2.7995  2.79985
Cl  -0.00329318  2.80063  5.60172
Na  -0.00187665  5.59984  -0.00408235
Cl  -0.00371515  5.6037  2.80008
Na  -0.00129661  5.60013  5.60363
Cl  2.80009  -0.00345226  -0.00263652
Na  2.80001  -0.00395065  2.79991
Cl  2.80006  -0.00344884  5.60261
Na  2.79991  2.79951  -0.00508715
Cl  2.79998  2.80026  2.80005
Na  2.79994  2.79953  5.60513
Cl  2.80004  5.60379  -0.00275469
Na  2.80003  5.6035  2.79993
Cl  2.80003  5.60377  5.60274
Na  5.60295  -0.00134723  -0.00415417
Cl  5.60346  -0.00339409  2.80011
Na  5.6023  -0.00118647  5.60389
Cl  5.60282  2.80063  -0.00182915
Na  5.60372  2.79952  2.79986
Cl  5.60307  2.80052  5.60193
Na  5.60202  5.60008  -0.00344159
Cl  5.60359  5.60371  2.80008
Na  5.60154  5.60023  5.60319
O  8.01733  8.00293  7.99637
H  7.80443  8.96106  8.01949
H  8.78146  7.38808  8.0254
O  8.022  5.01046  7.9948
H  7.72262  5.94591  8.0599
H  8.73756  4.34033  8.01516
O  8.02667  2.00722  8.00102
H  7.6415  2.92028  7.97586
H  8.74549  1.34497  8.0086
O  8.02049  -1.02052  7.99394
H  7.85884  -0.0381531  8.05769
H  8.56518  -2.02317  8.01407
O  8.0167  8.00231  -1.99652
H  7.8073  8.96082  -2.01772
H  8.78556  7.39398  -2.02382
O  8.02057  5.01111  -1.99425
H  7.74481  5.95168  -2.06728
H  8.73318  4.33733  -2.01404
O  8.02749  2.00639  -2.00187
H  7.6244  2.91358  -1.96461
H  8.75103  1.34979  -2.00679
O  8.01829  -1.01986  -1.99342
H  7.88121  -0.0353584  -2.06478
H  8.56907  -2.02694  -2.01269
O  -2.01737  8.00247  7.99558
H  -1.80248  8.96003  8.02227
H  -2.78533  7.39311  8.03254
O  -2.02189  5.01146  7.99284
H  -1.72893  5.94672  8.08269
H  -2.73124  4.33458  8.01899
O  -2.02702  2.00633  8.00222
H  -1.63133  2.91583  7.95778
H  -2.75175  1.3506  8.00892
O  -2.01994  -1.0197  7.99178
H  -1.86531  -0.0380324  8.08019
H  -2.56709  -2.02795  8.01758
O  -2.01665  8.00161  -1.99564
H  -1.80534  8.95948  -2.02057
H  -2.79117  7.40139  -2.03149
O  -2.01991  5.01263  -1.99148
H  -1.75981  5.95386  -2.09939
H  -2.72395  4.32965  -2.01844
O  -2.02837  2.00501  -2.00385
H  -1.60551  2.90479  -1.93678
H  -2.76032  1.358  -2.00665
O  -2.01698  -1.01855  -1.99052
H  -1.89651  -0.0348753  -2.09647
H  -2.57205  -2.0334  -2.01624
75
 Time: 8.99999 fs -- step count: 90
Na  -0.00362946  -0.00218559  -0.00615871
Cl  -0.00450221  -0.00425415  2.80016
Na  -0.00268986  -0.0017796  5.6056
Cl  -0.00378156  2.80105  -0.0019857
Na  -0.00446549  2.79939  2.79982
Cl  -0.0041469  2.80078  5.60225
Na  -0.00241876  5.59986  -0.00505644
Cl  -0.00465704  5.60464  2.8001
Na  -0.00168997  5.60021  5.6045
Cl  2.80011  -0.00433627  -0.0033461
Na  2.80001  -0.00500551  2.79989
Cl  2.80008  -0.00433369  5.60332
Na  2.7999  2.79939  -0.00637933
Cl  2.79998  2.80032  2.80007
Na  2.79993  2.79942  5.60643
Cl  2.80006  5.60476  -0.00349699
Na  2.80003  5.60444  2.79991
Cl  2.80004  5.60474  5.60348
Na  5.6037  -0.00173601  -0.00515709
Cl  5.60435  -0.00427131  2.80014
Na  5.60289  -0.00152724  5.60483
Cl  5.60358  2.80078  -0.00239238
Na  5.60472  2.79941  2.79983
Cl  5.60388  2.80064  5.60251
Na  5.60257  5.60015  -0.00425694
Cl  5.60451  5.60466  2.80009
Na  5.60197  5.60033  5.60396
O  8.01947  8.00242  7.99574
H  7.77015  8.97913  8.0226
H  8.79172  7.37041  8.02921
O  8.02458  5.01145  7.9939
H  7.67682  5.96405  8.07095
H  8.74094  4.31487  8.01709
O  8.03032  2.00696  8.00125
H  7.58011  2.93436  7.97023
H  8.74977  1.32655  8.00991
O  8.02579  -1.02822  7.99277
H  7.83672  -0.0356524  8.06774
H  8.48727  -1.89481  8.01686
O  8.01872  8.00164  -1.99592
H  7.77334  8.97932  -2.02052
H  8.79677  7.3773  -2.02731
O  8.02282  5.01237  -1.99323
H  7.70318  5.97045  -2.07987
H  8.73625  4.31034  -2.01575
O  8.03134  2.00587  -2.00225
H  7.55926  2.92663  -1.95648
H  8.75591  1.33293  -2.00785
O  8.02313  -1.02734  -1.99215
H  7.86284  -0.0322571  -2.07616
H  8.49237  -1.90031  -2.01516
O  -2.01954  8.00183  7.99481
H  -1.76768  8.97839  8.02575
H  -2.7962  7.37637  8.0374
O  -2.02438  5.01273  7.99158
H  -1.68419  5.96489  8.09784
H  -2.7341  4.30743  8.02137
O  -2.03079  2.00582  8.00268
H  -1.56792  2.9291  7.94827
H  -2.75648  1.33374  8.01032
O  -2.02511  -1.02718  7.99019
H  -1.84416  -0.0350217  8.09411
H  -2.48998  -1.90138  8.02105
O  -2.01869  8.00075  -1.99489
H  -1.77079  8.97836  -2.02373
H  -2.80334  7.38607  -2.03607
O  -2.02194  5.01432  -1.98995
H  -1.7207  5.97292  -2.1178
H  -2.7262  4.30013  -2.0206
O  -2.03249  2.00408  -2.00461
H  -1.53649  2.9164  -1.92253
H  -2.76591  1.34351  -2.00776
O  -2.02154  -1.02568  -1.98869
H  -1.8805  -0.0310808  -2.11332
H  -2.49653  -1.90928  -2.01936
75
 Time: 9.99999 fs -- step count: 100
Na  -0.00446718  -0.00274075  -0.00745847
Cl  -0.00551787  -0.00522136  2.80019
Na  -0.00332254  -0.00223022  5.60678
Cl  -0.00467587  2.80128  -0.00259199
Na  -0.00554684  2.79926  2.79978
Cl  -0.00509288  2.80094  5.60287
Na  -0.00305273  5.59989  -0.00611678
Cl  -0.00569486  5.6057  2.80012
Na  -0.00215465  5.60031  5.60545
Cl  2.80013  -0.0053118  -0.00414341
Na  2.80001  -0.00618891  2.79986
Cl  2.8001  -0.00531088  5.60411
Na  2.79988  2.79926  -0.00780263
Cl  2.79998  2.80039  2.80008
Na  2.79991  2.79929  5.60786
Cl  2.80007  5.60583  -0.00433061
Na  2.80004  5.6055  2.7999
Cl  2.80005  5.60581  5.60431
Na  5.60453  -0.00218355  -0.00624037
Cl  5.60534  -0.00524209  2.80017
Na  5.60356  -0.00191914  5.60585
Cl  5.60443  2.80094  -0.00305118
Na  5.60585  2.79929  2.79979
Cl  5.60477  2.80077  5.60317
Na  5.60319  5.60023  -0.0051389
Cl  5.60552  5.60571  2.80011
Na  5.60247  5.60046  5.60478
O  8.02298  8.0025  7.99521
H  7.74414  8.96007  8.02492
H  8.77274  7.37807  8.03186
O  8.02819  5.01297  7.99314
H  7.64182  5.94835  8.08046
H  8.71675  4.31617  8.0182
O  8.03505  2.0068  8.00148
H  7.53065  2.91662  7.96456
H  8.72602  1.33791  8.01083
O  8.03193  -1.03573  7.99172
H  7.81866  -0.0698084  8.07616
H  8.38946  -1.73083  8.01901
O  8.02212  8.00156  -1.99541
H  7.74749  8.96077  -2.02258
H  8.77866  7.38583  -2.02966
O  8.02609  5.01422  -1.99237
H  7.67188  5.95482  -2.09077
H  8.71198  4.30984  -2.01664
O  8.0363  2.00537  -2.0026
H  7.50599  2.90844  -1.94832
H  8.73244  1.34602  -2.0086
O  8.02883  -1.03455  -1.99101
H  7.84787  -0.0660657  -2.08577
H  8.39607  -1.73887  -2.01701
O  -2.0231  8.00177  7.99418
H  -1.74114  8.95978  8.02828
H  -2.7777  7.38482  8.04079
O  -2.02787  5.01456  7.9905
H  -1.65001  5.94924  8.11077
H  -2.70978  4.30695  8.02269
O  -2.03567  2.00536  8.00311
H  -1.51651  2.91087  7.93888
H  -2.73276  1.34664  8.01133
O  -2.03111  -1.03443  7.98876
H  -1.82685  -0.0684392  8.10575
H  -2.39333  -1.73987  8.02371
O  -2.02214  8.00047  -1.99427
H  -1.74431  8.96039  -2.02598
H  -2.78598  7.39578  -2.03912
O  -2.02495  5.01667  -1.98863
H  -1.69136  5.95755  -2.13358
H  -2.70163  4.29689  -2.02166
O  -2.03776  2.00308  -2.00531
H  -1.47935  2.89748  -1.90834
H  -2.74251  1.35899  -2.00858
O  -2.02695  -1.03248  -1.98705
H  -1.86735  -0.0639119  -2.12747
H  -2.40191  -1.75136  -2.02166
75
 Time: 11 fs -- step count: 110
Na  -0.00538338  -0.00336832  -0.00883968
Cl  -0.00662764  -0.00627864  2.80022
Na  -0.00401896  -0.00274001  5.60803
Cl  -0.00566663  2.80151  -0.003312
Na  -0.00675273  2.79913  2.79975
Cl  -0.00612933  2.80112  5.6036
Na  -0.00378281  5.59995  -0.00725448
Cl  -0.00682471  5.60685  2.80014
Na  -0.00269502  5.60043  5.60646
Cl  2.80016  -0.00637526  -0.00503007
Na  2.80001  -0.0075026  2.79984
Cl  2.80012  -0.006377  5.60499
Na  2.79986  2.79913  -0.0093513
Cl  2.79998  2.80046  2.80009
Na  2.7999  2.79916  5.60942
Cl  2.80009  5.607  -0.0052565
Na  2.80004  5.60667  2.79988
Cl  2.80006  5.60698  5.60523
Na  5.60543  -0.00269176  -0.00739017
Cl  5.60642  -0.00630339  2.8002
Na  5.60428  -0.00236436  5.60693
Cl  5.60538  2.80112  -0.00381382
Na  5.60711  2.79916  2.79976
Cl  5.60576  2.80092  5.60393
Na  5.60389  5.60035  -0.00607902
Cl  5.60662  5.60687  2.80013
Na  5.60303  5.60061  5.60567
O  8.02781  8.00312  7.99482
H  7.72804  8.90349  8.02628
H  8.72345  7.41231  8.03308
O  8.03272  5.01486  7.99257
H  7.61967  5.89934  8.08802
H  8.66456  4.34584  8.01833
O  8.04082  2.00651  8.00169
H  7.49501  2.86874  7.95897
H  8.67291  1.38121  8.01129
O  8.03742  -1.04025  7.99072
H  7.8063  -0.140632  8.08245
H  8.2943  -1.57596  8.0223
O  8.02687  8.00202  -1.99503
H  7.73137  8.90482  -2.02375
H  8.73006  7.42078  -2.03062
O  8.03028  5.01656  -1.9917
H  7.6529  5.90505  -2.09951
H  8.66009  4.33733  -2.01658
O  8.04234  2.00465  -2.00292
H  7.46633  2.86101  -1.94023
H  8.67908  1.39124  -2.00899
O  8.03428  -1.0395  -1.98998
H  7.83778  -0.136975  -2.093
H  8.29643  -1.57437  -2.01932
O  -2.028  8.00224  7.99372
H  -1.7245  8.90391  8.02968
H  -2.72867  7.41966  8.04235
O  -2.03226  5.01679  7.98968
H  -1.62838  5.90028  8.12091
H  -2.65802  4.33471  8.02275
O  -2.04164  2.0047  8.00351
H  -1.47893  2.863  7.92976
H  -2.67909  1.39149  8.01187
O  -2.03683  -1.0394  7.98746
H  -1.81492  -0.138249  8.1144
H  -2.29365  -1.57603  8.02708
O  -2.02696  8.00072  -1.9938
H  -1.72751  8.90531  -2.02715
H  -2.73785  7.43164  -2.0403
O  -2.02885  5.01955  -1.98759
H  -1.67367  5.90796  -2.14599
H  -2.65022  4.32135  -2.02143
O  -2.04417  2.00174  -2.00592
H  -1.43567  2.85039  -1.89435
H  -2.68832  1.40665  -2.0091
O  -2.03256  -1.0378  -1.98563
H  -1.85838  -0.133501  -2.13804
H  -2.29753  -1.57768  -2.02374
75
 Time: 12 fs -- step count: 120
Na  -0.0063739  -0.00406938  -0.010285
Cl  -0.00782769  -0.00742295  2.80026
Na  -0.00477833  -0.00331053  5.60935
Cl  -0.00675522  2.80176  -0.00415794
Na  -0.00808609  2.799  2.79971
Cl  -0.00725473  2.8013  5.60443
Na  -0.00461033  5.60004  -0.00845868
Cl  -0.00804267  5.6081  2.80017
Na  -0.00331351  5.6006  5.60754
Cl  2.80019  -0.00752314  -0.00600765
Na  2.8  -0.0089479  2.79981
Cl  2.80014  -0.00752878  5.60597
Na  2.79984  2.79898  -0.0110193
Cl  2.79998  2.80054  2.80011
Na  2.79988  2.79902  5.6111
Cl  2.8001  5.60827  -0.00627559
Na  2.80004  5.60796  2.79986
Cl  2.80007  5.60825  5.60624
Na  5.6064  -0.00326223  -0.00859308
Cl  5.60759  -0.00745231  2.80023
Na  5.60505  -0.00286469  5.60807
Cl  5.60643  2.8013  -0.00468872
Na  5.60849  2.79903  2.79973
Cl  5.60683  2.80106  5.60479
Na  5.60466  5.6005  -0.00706775
Cl  5.60781  5.60812  2.80015
Na  5.60365  5.60079  5.6066
O  8.034  8.00429  7.9946
H  7.72447  8.80662  8.0264
H  8.64052  7.47614  8.03246
O  8.03813  5.017  7.99225
H  7.61354  5.8152  8.09292
H  8.58206  4.40771  8.01718
O  8.04764  2.00585  8.00189
H  7.47617  2.79072  7.95367
H  8.5871  1.46012  8.01119
O  8.03274  -1.02221  7.98874
H  7.80257  -0.251126  8.08556
H  8.35019  -1.73801  8.0442
O  8.03302  8.00304  -1.99481
H  7.7275  8.8087  -2.02378
H  8.64753  7.48501  -2.02981
O  8.03533  5.01927  -1.99132
H  7.64939  5.81888  -2.10521
H  8.57851  4.39657  -2.0153
O  8.04947  2.00345  -2.00317
H  7.443  2.78483  -1.9325
H  8.59236  1.47213  -2.009
O  8.02961  -1.02212  -1.98807
H  7.83518  -0.248004  -2.0967
H  8.34836  -1.72248  -2.03897
O  -2.03428  8.00325  7.99347
H  -1.72036  8.80808  8.02962
H  -2.64571  7.48384  8.04154
O  -2.03748  5.0193  7.98918
H  -1.62244  5.8162  8.12728
H  -2.57674  4.3945  8.02119
O  -2.0487  2.00362  8.00384
H  -1.45802  2.7858  7.92126
H  -2.59201  1.47184  8.01191
O  -2.03257  -1.02205  7.98495
H  -1.81116  -0.247219  8.11869
H  -2.34248  -1.72587  8.05388
O  -2.03321  8.00152  -1.99356
H  -1.7229  8.81047  -2.02696
H  -2.65536  7.49641  -2.03914
O  -2.03354  5.02288  -1.98694
H  -1.67066  5.82186  -2.15373
H  -2.57022  4.37715  -2.01956
O  -2.05177  1.99979  -2.00642
H  -1.40787  2.7762  -1.88097
H  -2.59978  1.48982  -2.00936
O  -2.02852  -1.0216  -1.98314
H  -1.85593  -0.242566  -2.14343
H  -2.33784  -1.70407  -2.04774
75
 Time: 13 fs -- step count: 130
Na  -0.00744838  -0.00484447  -0.011794
Cl  -0.00911395  -0.00865374  2.80029