75
 Time: 0 fs -- step count: 0
Na  0  0  0
Cl  0  0  2.8
Na  0  0  5.6
Cl  0  2.8  0
Na  0  2.8  2.8
Cl  0  2.8  5.6
Na  0  5.6  0
Cl  0  5.6  2.8
Na  0  5.6  5.6
Cl  2.8  0  0
Na  2.8  0  2.8
Cl  2.8  0  5.6
Na  2.8  2.8  0
Cl  2.8  2.8  2.8
Na  2.8  2.8  5.6
Cl  2.8  5.6  0
Na  2.8  5.6  2.8
Cl  2.8  5.6  5.6
Na  5.6  0  0
Cl  5.6  0  2.8
Na  5.6  0  5.6
Cl  5.6  2.8  0
Na  5.6  2.8  2.8
Cl  5.6  2.8  5.6
Na  5.6  5.6  0
Cl  5.6  5.6  2.8
Na  5.6  5.6  5.6
O  8  8  8
H  8  9  8
H  8.81362  7.4186  8
O  8  5  8
H  8  6  8
H  8.81362  4.4186  8
O  8  2  8
H  8  3  8
H  8.81362  1.4186  8
O  8  -1  8
H  8  0  8
H  8.81362  -2.4186  8
O  8  8  -2
H  8  9  -2
H  8.81362  7.4186  -2
O  8  5  -2
H  8  6  -2
H  8.81362  4.4186  -2
O  8  2  -2
H  8  3  -2
H  8.81362  1.4186  -2
O  8  -1  -2
H  8  0  -2
H  8.81362  -2.4186  -2
O  -2  8  8
H  -2  9  8
H  -2.81362  7.4186  8
O  -2  5  8
H  -2  6  8
H  -2.81362  4.4186  8
O  -2  2  8
H  -2  3  8
H  -2.81362  1.4186  8
O  -2  -1  8
H  -2  0  8
H  -2.81362  -2.4186  8
O  -2  8  -2
H  -2  9  -2
H  -2.81362  7.4186  -2
O  -2  5  -2
H  -2  6  -2
H  -2.81362  4.4186  -2
O  -2  2  -2
H  -2  3  -2
H  -2.81362  1.4186  -2
O  -2  -1  -2
H  -2  0  -2
H  -2.81362  -2.4186  -2
75
 Time: 0.1 fs -- step count: 1
Na  -8.84329e-07  -5.16894e-07  -1.67836e-06
Cl  -1.15003e-06  -1.05583e-06  2.8
Na  -6.35792e-07  -4.18279e-07  5.6
Cl  -8.96634e-07  2.8  -2.98176e-07
Na  -1.01425e-06  2.8  2.8
Cl  -1.03047e-06  2.8  5.6
Na  -5.87024e-07  5.6  -1.47051e-06
Cl  -1.20236e-06  5.6  2.8
Na  -3.72516e-07  5.6  5.6
Cl  2.8  -1.09308e-06  -7.92079e-07
Na  2.8  -1.20624e-06  2.8
Cl  2.8  -1.09021e-06  5.6
Na  2.8  2.8  -1.63495e-06
Cl  2.8  2.8  2.8
Na  2.8  2.8  5.6
Cl  2.8  5.6  -8.22776e-07
Na  2.8  5.6  2.8
Cl  2.8  5.6  5.6
Na  5.6  -3.97286e-07  -1.41005e-06
Cl  5.6  -1.06206e-06  2.8
Na  5.6  -3.48876e-07  5.6
Cl  5.6  2.8  -4.48662e-07
Na  5.6  2.8  2.8
Cl  5.6  2.8  5.6
Na  5.6  5.6  -1.23053e-06
Cl  5.6  5.6  2.8
Na  5.6  5.6  5.6
O  8.00002  8.00001  8
H  7.99997  8.99962  8
H  8.81331  7.41884  8.00001
O  8.00002  5.00001  8
H  7.99993  5.99963  8.00001
H  8.8133  4.41883  8
O  8.00003  2.00001  8
H  7.99991  2.99962  7.99999
H  8.8133  1.41883  8
O  8.00001  -0.999981  8
H  7.99996  -0.000403257  8.00001
H  8.81355  -2.41849  8
O  8.00002  8.00001  -2
H  7.99997  8.99962  -2
H  8.81331  7.41884  -2.00001
O  8.00002  5.00001  -2
H  7.99994  5.99963  -2.00002
H  8.8133  4.41883  -2
O  8.00003  2.00001  -2
H  7.99991  2.99962  -1.99999
H  8.8133  1.41883  -2
O  8  -0.999981  -2
H  7.99996  -0.000401914  -2.00002
H  8.81355  -2.41849  -2
O  -2.00002  8.00001  8
H  -1.99997  8.99962  8.00001
H  -2.81331  7.41885  8.00001
O  -2.00002  5.00001  8
H  -1.99994  5.99963  8.00002
H  -2.8133  4.41883  8
O  -2.00003  2.00001  8
H  -1.99991  2.99962  7.99999
H  -2.8133  1.41883  8
O  -2.00001  -0.999981  8
H  -1.99996  -0.000401914  8.00002
H  -2.81355  -2.41849  8.00001
O  -2.00002  8.00001  -2
H  -1.99997  8.99962  -2
H  -2.81331  7.41885  -2.00001
O  -2.00002  5.00001  -2
H  -1.99994  5.99963  -2.00002
H  -2.8133  4.41882  -2
O  -2.00003  2.00001  -2
H  -1.99991  2.99962  -1.99999
H  -2.8133  1.41884  -2
O  -2  -0.99998  -2
H  -1.99996  -0.00040007  -2.00002
H  -2.81355  -2.41849  -2.00001
75
 Time: 0.2 fs -- step count: 2
Na  -2.65298e-06  -1.55065e-06  -5.03474e-06
Cl  -3.44999e-06  -3.16748e-06  2.8
Na  -1.90741e-06  -1.25483e-06  5.6
Cl  -2.68997e-06  2.8  -8.94875e-07
Na  -3.04292e-06  2.8  2.8
Cl  -3.09138e-06  2.8  5.6
Na  -1.76098e-06  5.6  -4.41103e-06
Cl  -3.60695e-06  5.6  2.8
Na  -1.11756e-06  5.6  5.6
Cl  2.8  -3.27917e-06  -2.37629e-06
Na  2.8  -3.61876e-06  2.8
Cl  2.8  -3.27058e-06  5.6
Na  2.8  2.8  -4.90471e-06
Cl  2.8  2.8  2.8
Na  2.8  2.8  5.6
Cl  2.8  5.6  -2.46839e-06
Na  2.8  5.6  2.8
Cl  2.8  5.6  5.6
Na  5.6  -1.19187e-06  -4.22987e-06
Cl  5.6  -3.18616e-06  2.8
Na  5.6  -1.04664e-06  5.6
Cl  5.6  2.8  -1.34624e-06
Na  5.6  2.8  2.8
Cl  5.6  2.8  5.6
Na  5.6  5.6  -3.6912e-06
Cl  5.6  5.6  2.8
Na  5.6  5.6  5.6
O  8.00007  8.00002  8
H  7.9999  8.99886  8.00001
H  8.81268  7.41933  8.00002
O  8.00007  5.00003  8
H  7.9998  5.99888  8.00004
H  8.81266  4.41928  8.00001
O  8.00008  2.00002  8
H  7.99974  2.99887  7.99998
H  8.81265  1.41929  8.00001
O  8.00002  -0.999942  8
H  7.99987  -0.00121014  8.00004
H  8.8134  -2.41827  8.00001
O  8.00007  8.00002  -2
H  7.99991  8.99887  -2.00001
H  8.81269  7.41933  -2.00002
O  8.00007  5.00003  -2
H  7.99982  5.99888  -2.00005
H  8.81266  4.41928  -2.00001
O  8.00008  2.00002  -2
H  7.99973  2.99887  -1.99998
H  8.81265  1.41929  -2.00001
O  8.00001  -0.999941  -1.99999
H  7.99988  -0.00120611  -2.00005
H  8.8134  -2.41827  -2.00001
O  -2.00007  8.00002  8
H  -1.9999  8.99887  8.00002
H  -2.81269  7.41933  8.00002
O  -2.00007  5.00003  7.99999
H  -1.99981  5.99888  8.00006
H  -2.81266  4.41927  8.00001
O  -2.00008  2.00002  8
H  -1.99973  2.99887  7.99997
H  -2.81265  1.41929  8.00001
O  -2.00002  -0.999941  7.99999
H  -1.99987  -0.00120611  8.00006
H  -2.8134  -2.41827  8.00002
O  -2.00007  8.00002  -2
H  -1.9999  8.99887  -2.00001
H  -2.81269  7.41933  -2.00002
O  -2.00007  5.00003  -1.99999
H  -1.99983  5.99888  -2.00007
H  -2.81266  4.41927  -2.00001
O  -2.00008  2.00002  -2
H  -1.99972  2.99887  -1.99996
H  -2.81265  1.4193  -2.00001
O  -2.00001  -0.999941  -1.99999
H  -1.99989  -0.00120058  -2.00007
H  -2.81341  -2.41828  -2.00002
75
 Time: 0.3 fs -- step count: 3
Na  -5.30592e-06  -3.10121e-06  -1.00685e-05
Cl  -6.89969e-06  -6.3349e-06  2.8
Na  -3.81493e-06  -2.50962e-06  5.60001
Cl  -5.38014e-06  2.8  -1.79079e-06
Na  -6.08631e-06  2.8  2.8
Cl  -6.1827e-06  2.8  5.6
Na  -3.52171e-06  5.6  -8.82054e-06
Cl  -7.21355e-06  5.60001  2.8
Na  -2.23517e-06  5.6  5.60001
Cl  2.8  -6.55818e-06  -4.75272e-06
Na  2.8  -7.2376e-06  2.8
Cl  2.8  -6.54101e-06  5.6
Na  2.8  2.8  -9.80902e-06
Cl  2.8  2.8  2.8
Na  2.8  2.8  5.60001
Cl  2.8  5.60001  -4.93697e-06
Na  2.8  5.60001  2.8
Cl  2.8  5.60001  5.6
Na  5.60001  -2.38376e-06  -8.45887e-06
Cl  5.60001  -6.37225e-06  2.8
Na  5.6  -2.09333e-06  5.60001
Cl  5.60001  2.8  -2.69323e-06
Na  5.60001  2.8  2.8
Cl  5.60001  2.8  5.6
Na  5.6  5.6  -7.38121e-06
Cl  5.60001  5.60001  2.8
Na  5.6  5.6  5.60001
O  8.00014  8.00005  7.99999
H  7.99981  8.99773  8.00003
H  8.81175  7.42005  8.00004
O  8.00015  5.00006  7.99999
H  7.99961  5.99776  8.00009
H  8.81169  4.41996  8.00002
O  8.00015  2.00005  8
H  7.99948  2.99774  7.99997
H  8.81168  1.41997  8.00001
O  8.00003  -0.999884  7.99999
H  7.99973  -0.00242138  8.00008
H  8.81318  -2.41793  8.00003
O  8.00014  8.00005  -1.99999
H  7.99981  8.99773  -2.00002
H  8.81176  7.42005  -2.00003
O  8.00014  5.00006  -1.99999
H  7.99964  5.99776  -2.0001
H  8.8117  4.41995  -2.00002
O  8.00016  2.00005  -2
H  7.99946  2.99774  -1.99995
H  8.81168  1.41998  -2.00001
O  8.00003  -0.999883  -1.99999
H  7.99976  -0.00241332  -2.00009
H  8.81319  -2.41794  -2.00003
O  -2.00014  8.00005  7.99999
H  -1.9998  8.99773  8.00003
H  -2.81175  7.42006  8.00005
O  -2.00014  5.00006  7.99999
H  -1.99962  5.99776  8.00012
H  -2.81169  4.41995  8.00003
O  -2.00016  2.00005  8
H  -1.99947  2.99774  7.99995
H  -2.81168  1.41999  8.00002
O  -2.00003  -0.999883  7.99999
H  -1.99974  -0.00241332  8.00011
H  -2.81318  -2.41794  8.00004
O  -2.00014  8.00005  -1.99999
H  -1.99981  8.99774  -2.00003
H  -2.81177  7.42006  -2.00005
O  -2.00014  5.00007  -1.99999
H  -1.99966  5.99776  -2.00014
H  -2.8117  4.41993  -2.00002
O  -2.00016  2.00004  -2.00001
H  -1.99943  2.99773  -1.99992
H  -2.81168  1.42  -2.00001
O  -2.00003  -0.999881  -1.99998
H  -1.99979  -0.00240226  -2.00014
H  -2.81319  -2.41795  -2.00003
75
 Time: 0.4 fs -- step count: 4
Na  -8.84311e-06  -5.16847e-06  -1.67785e-05
Cl  -1.14988e-05  -1.0558e-05  2.8
Na  -6.35845e-06  -4.18263e-06  5.60002
Cl  -8.96736e-06  2.8  -2.98698e-06
Na  -1.01449e-05  2.8  2.8
Cl  -1.03044e-05  2.8  5.6
Na  -5.86894e-06  5.6  -1.46975e-05
Cl  -1.20218e-05  5.60001  2.8
Na  -3.72537e-06  5.6  5.60001
Cl  2.8  -1.09299e-05  -7.92152e-06
Na  2.8  -1.20629e-05  2.8
Cl  2.8  -1.09014e-05  5.60001
Na  2.8  2.8  -1.63475e-05
Cl  2.8  2.8  2.8
Na  2.8  2.8  5.60002
Cl  2.8  5.60001  -8.2287e-06
Na  2.8  5.60001  2.8
Cl  2.8  5.60001  5.60001
Na  5.60001  -3.97298e-06  -1.40962e-05
Cl  5.60001  -1.06202e-05  2.8
Na  5.60001  -3.48899e-06  5.60001
Cl  5.60001  2.8  -4.49041e-06
Na  5.60001  2.8  2.8
Cl  5.60001  2.8  5.6
Na  5.60001  5.6  -1.22994e-05
Cl  5.60001  5.60001  2.8
Na  5.6  5.6  5.60001
O  8.00023  8.00008  7.99999
H  7.99968  8.99621  8.00005
H  8.8105  7.42101  8.00006
O  8.00024  5.0001  7.99999
H  7.99934  5.99627  8.00014
H  8.8104  4.42087  8.00003
O  8.00026  2.00008  8
H  7.99914  2.99624  7.99995
H  8.81038  1.42088  8.00002
O  8.00006  -0.999807  7.99998
H  7.99955  -0.00403808  8.00013
H  8.81289  -2.41749  8.00005
O  8.00023  8.00008  -1.99999
H  7.99968  8.99622  -2.00004
H  8.81052  7.42102  -2.00006
O  8.00024  5.0001  -1.99999
H  7.9994  5.99627  -2.00016
H  8.81041  4.42085  -2.00003
O  8.00026  2.00008  -2
H  7.9991  2.99623  -1.99992
H  8.81039  1.4209  -2.00002
O  8.00005  -0.999805  -1.99998
H  7.99961  -0.00402465  -2.00015
H  8.8129  -2.4175  -2.00004
O  -2.00023  8.00008  7.99999
H  -1.99967  8.99622  8.00005
H  -2.81051  7.42103  8.00008
O  -2.00024  5.0001  7.99998
H  -1.99936  5.99627  8.0002
H  -2.81041  4.42084  8.00004
O  -2.00026  2.00008  8.00001
H  -1.99911  2.99623  7.99991
H  -2.81038  1.42091  8.00003
O  -2.00005  -0.999805  7.99998
H  -1.99957  -0.00402465  8.00019
H  -2.81289  -2.4175  8.00006
O  -2.00023  8.00008  -1.99999
H  -1.99968  8.99623  -2.00005
H  -2.81053  7.42104  -2.00008
O  -2.00023  5.00011  -1.99998
H  -1.99944  5.99627  -2.00024
H  -2.81042  4.42082  -2.00004
O  -2.00026  2.00007  -2.00001
H  -1.99905  2.99621  -1.99986
H  -2.81038  1.42093  -2.00002
O  -2.00005  -0.999801  -1.99997
H  -1.99965  -0.00400623  -2.00023
H  -2.81291  -2.41751  -2.00006
75
 Time: 0.5 fs -- step count: 5
Na  -1.32645e-05  -7.7523e-06  -2.51634e-05
Cl  -1.7247e-05  -1.58368e-05  2.8
Na  -9.53813e-06  -6.27382e-06  5.60002
Cl  -1.34519e-05  2.8  -4.48482e-06
Na  -1.52194e-05  2.8  2.8
Cl  -1.54563e-05  2.8  5.60001
Na  -8.80232e-06  5.6  -2.204e-05
Cl  -1.80312e-05  5.60002  2.8
Na  -5.58824e-06  5.6  5.60002
Cl  2.8  -1.63942e-05  -1.18829e-05
Na  2.8  -1.80946e-05  2.8
Cl  2.8  -1.63514e-05  5.60001
Na  2.8  2.8  -2.45195e-05
Cl  2.8  2.8  2.8
Na  2.8  2.8  5.60002
Cl  2.8  5.60002  -1.23438e-05
Na  2.8  5.60002  2.8
Cl  2.8  5.60002  5.60001
Na  5.60001  -5.95957e-06  -2.11407e-05
Cl  5.60002  -1.593e-05  2.8
Na  5.60001  -5.23368e-06  5.60002
Cl  5.60001  2.8  -6.73877e-06
Na  5.60002  2.8  2.8
Cl  5.60001  2.8  5.60001
Na  5.60001  5.6  -1.84442e-05
Cl  5.60002  5.60002  2.8
Na  5.60001  5.6  5.60002
O  8.00035  8.00012  7.99999
H  7.99952  8.99431  8.00007
H  8.80894  7.42222  8.00009
O  8.00036  5.00015  7.99998
H  7.99902  5.9944  8.00022
H  8.80879  4.422  8.00005
O  8.00039  2.00012  8
H  7.99871  2.99435  7.99992
H  8.80876  1.42202  8.00004
O  8.00008  -0.99971  7.99998
H  7.99933  -0.00606171  8.0002
H  8.81253  -2.41693  8.00007
O  8.00035  8.00012  -1.99999
H  7.99953  8.99432  -2.00006
H  8.80896  7.42223  -2.00009
O  8.00036  5.00016  -1.99998
H  7.9991  5.9944  -2.00024
H  8.8088  4.42198  -2.00005
O  8.00039  2.00012  -2.00001
H  7.99865  2.99434  -1.99989
H  8.80876  1.42205  -2.00003
O  8.00007  -0.999707  -1.99997
H  7.99941  -0.00604158  -2.00023
H  8.81254  -2.41694  -2.00006
O  -2.00035  8.00012  7.99998
H  -1.99951  8.99432  8.00008
H  -2.80895  7.42224  8.00012
O  -2.00036  5.00016  7.99997
H  -1.99904  5.9944  8.0003
H  -2.8088  4.42196  8.00006
O  -2.00039  2.00012  8.00001
H  -1.99867  2.99434  7.99986
H  -2.80876  1.42206  8.00004
O  -2.00008  -0.999707  7.99997
H  -1.99936  -0.00604157  8.00028
H  -2.81253  -2.41695  8.00009
O  -2.00035  8.00011  -1.99998
H  -1.99952  8.99434  -2.00007
H  -2.80898  7.42226  -2.00012
O  -2.00035  5.00017  -1.99997
H  -1.99916  5.9944  -2.00035
H  -2.80881  4.42193  -2.00006
O  -2.0004  2.00011  -2.00001
H  -1.99858  2.99432  -1.99979
H  -2.80876  1.4221  -2.00003
O  -2.00007  -0.999702  -1.99996
H  -1.99947  -0.00601396  -2.00034
H  -2.81255  -2.41697  -2.00008
75
 Time: 0.6 fs -- step count: 6
Na  -1.85701e-05  -1.08526e-05  -3.52215e-05
Cl  -2.41436e-05  -2.2171e-05  2.8
Na  -1.33541e-05  -8.78313e-06  5.60003
Cl  -1.88341e-05  2.80001  -6.28606e-06
Na  -2.13105e-05  2.8  2.8
Cl  -2.16384e-05  2.8  5.60001
Na  -1.23214e-05  5.6  -3.08453e-05
Cl  -2.52411e-05  5.60002  2.8
Na  -7.82384e-06  5.6  5.60003
Cl  2.8  -2.29508e-05  -1.66371e-05
Na  2.8  -2.53331e-05  2.8
Cl  2.8  -2.28909e-05  5.60002
Na  2.8  2.8  -3.43244e-05
Cl  2.8  2.8  2.8
Na  2.8  2.8  5.60003
Cl  2.8  5.60003  -1.72827e-05
Na  2.8  5.60002  2.8
Cl  2.8  5.60003  5.60002
Na  5.60002  -8.34357e-06  -2.95909e-05
Cl  5.60002  -2.23015e-05  2.8
Na  5.60002  -7.32748e-06  5.60003
Cl  5.60002  2.8  -9.43958e-06
Na  5.60002  2.8  2.8
Cl  5.60002  2.8  5.60001
Na  5.60001  5.6  -2.58136e-05
Cl  5.60002  5.60002  2.8
Na  5.60001  5.6  5.60002
O  8.00049  8.00017  7.99998
H  7.99932  8.99202  8.0001
H  8.80706  7.42367  8.00013
O  8.00051  5.00021  7.99997
H  7.99863  5.99215  8.0003
H  8.80686  4.42337  8.00007
O  8.00054  2.00018  8.00001
H  7.99819  2.99209  7.99989
H  8.80681  1.4234  8.00005
O  8.00012  -0.999593  7.99997
H  7.99906  -0.00849412  8.00028
H  8.81209  -2.41626  8.0001
O  8.00048  8.00017  -1.99998
H  7.99934  8.99204  -2.00009
H  8.80709  7.42369  -2.00012
O  8.0005  5.00022  -1.99997
H  7.99874  5.99215  -2.00033
H  8.80687  4.42333  -2.00007
O  8.00055  2.00017  -2.00001
H  7.99811  2.99207  -1.99984
H  8.80682  1.42343  -2.00004
O  8.0001  -0.999589  -1.99996
H  7.99918  -0.00846595  -2.00032
H  8.81211  -2.41628  -2.00009
O  -2.00049  8.00017  7.99998
H  -1.99931  8.99204  8.00011
H  -2.80707  7.4237  8.00017
O  -2.00051  5.00022  7.99996
H  -1.99866  5.99215  8.00042
H  -2.80686  4.42331  8.00009
O  -2.00055  2.00017  8.00001
H  -1.99814  2.99207  7.99981
H  -2.80681  1.42345  8.00006
O  -2.00011  -0.999589  7.99995
H  -1.9991  -0.00846594  8.00039
H  -2.8121  -2.41629  8.00012
O  -2.00048  8.00016  -1.99998
H  -1.99933  8.99207  -2.0001
H  -2.80712  7.42372  -2.00016
O  -2.00049  5.00023  -1.99995
H  -1.99882  5.99216  -2.00049
H  -2.80688  4.42326  -2.00009
O  -2.00056  2.00015  -2.00002
H  -1.99801  2.99204  -1.99971
H  -2.80681  1.4235  -2.00005
O  -2.0001  -0.999582  -1.99995
H  -1.99926  -0.00842731  -2.00047
H  -2.81213  -2.41631  -2.00012
75
 Time: 0.7 fs -- step count: 7
Na  -2.47598e-05  -1.4469e-05  -4.69507e-05
Cl  -3.21883e-05  -2.95607e-05  2.8
Na  -1.78067e-05  -1.17105e-05  5.60004
Cl  -2.51143e-05  2.80001  -8.39279e-06
Na  -2.84193e-05  2.79999  2.8
Cl  -2.88506e-05  2.80001  5.60001
Na  -1.64257e-05  5.6  -4.11105e-05
Cl  -3.36509e-05  5.60003  2.8
Na  -1.04323e-05  5.6  5.60004
Cl  2.8  -3.05993e-05  -2.21843e-05
Na  2.8  -3.37784e-05  2.8
Cl  2.8  -3.05195e-05  5.60002
Na  2.8  2.8  -4.57615e-05
Cl  2.8  2.8  2.8
Na  2.8  2.8  5.60005
Cl  2.8  5.60003  -2.30456e-05
Na  2.8  5.60003  2.8
Cl  2.8  5.60003  5.60002
Na  5.60003  -1.1125e-05  -3.94452e-05
Cl  5.60003  -2.97345e-05  2.8
Na  5.60002  -9.77048e-06  5.60004
Cl  5.60002  2.80001  -1.25944e-05
Na  5.60003  2.8  2.8
Cl  5.60003  2.80001  5.60001
Na  5.60002  5.6  -3.44053e-05
Cl  5.60003  5.60003  2.8
Na  5.60001  5.6  5.60003
O  8.00065  8.00023  7.99997
H  7.9991  8.98936  8.00013
H  8.80486  7.42536  8.00017
O  8.00068  5.00028  7.99996
H  7.99817  5.98953  8.0004
H  8.80459  4.42496  8.0001
O  8.00072  2.00023  8.00001
H  7.99759  2.98944  7.99986
H  8.80453  1.425  8.00007
O  8.00015  -0.999457  7.99995
H  7.99875  -0.0113375  8.00037
H  8.81158  -2.41548  8.00013
O  8.00065  8.00022  -1.99997
H  7.99912  8.98938  -2.00012
H  8.8049  7.42538  -2.00016
O  8.00067  5.00029  -1.99996
H  7.99832  5.98953  -2.00045
H  8.80461  4.42491  -2.00009
O  8.00073  2.00022  -2.00001
H  7.99748  2.98942  -1.99979
H  8.80454  1.42504  -2.00006
O  8.00014  -0.999451  -1.99995
H  7.9989  -0.0113  -2.00042
H  8.81161  -2.4155  -2.00012
O  -2.00065  8.00022  7.99997
H  -1.99909  8.98938  8.00015
H  -2.80488  7.4254  8.00022
O  -2.00068  5.00029  7.99995
H  -1.99821  5.98953  8.00055
H  -2.8046  4.42489  8.00012
O  -2.00073  2.00022  8.00002
H  -1.99752  2.98942  7.99975
H  -2.80453  1.42507  8.00007
O  -2.00015  -0.999451  7.99994
H  -1.9988  -0.0113  8.00052
H  -2.81159  -2.41551  8.00017
O  -2.00065  8.00021  -1.99997
H  -1.9991  8.98942  -2.00013
H  -2.80494  7.42543  -2.00022
O  -2.00066  5.00031  -1.99994
H  -1.99843  5.98954  -2.00066
H  -2.80463  4.42481  -2.00011
O  -2.00074  2.0002  -2.00003
H  -1.99735  2.98937  -1.99962
H  -2.80453  1.42514  -2.00006
O  -2.00013  -0.999442  -1.99993
H  -1.99901  -0.0112485  -2.00063
H  -2.81163  -2.41555  -2.00015
75
 Time: 0.8 fs -- step count: 8
Na  -3.18335e-05  -1.86015e-05  -6.03486e-05
Cl  -4.13801e-05  -3.80056e-05  2.8
Na  -2.2896e-05  -1.50558e-05  5.60005
Cl  -3.22931e-05  2.80001  -1.08075e-05
Na  -3.65468e-05  2.79999  2.8
Cl  -3.70927e-05  2.80001  5.60001
Na  -2.11146e-05  5.59999  -5.2832e-05
Cl  -4.32597e-05  5.60004  2.8
Na  -1.34136e-05  5.6  5.60005
Cl  2.8  -3.93394e-05  -2.85251e-05
Na  2.8  -4.34308e-05  2.8
Cl  2.8  -3.9237e-05  5.60003
Na  2.8  2.79999  -5.88297e-05
Cl  2.8  2.8  2.8
Na  2.8  2.79999  5.60006
Cl  2.8  5.60004  -2.96331e-05
Na  2.8  5.60004  2.8
Cl  2.8  5.60004  5.60003
Na  5.60003  -1.4304e-05  -5.07014e-05
Cl  5.60004  -3.82288e-05  2.8
Na  5.60003  -1.25628e-05  5.60005
Cl  5.60003  2.80001  -1.62049e-05
Na  5.60004  2.79999  2.8
Cl  5.60003  2.80001  5.60002
Na  5.60002  5.6  -4.42165e-05
Cl  5.60004  5.60004  2.8
Na  5.60002  5.6  5.60004
O  8.00084  8.00029  7.99996
H  7.99884  8.9863  8.00016
H  8.80234  7.4273  8.00022
O  8.00088  5.00036  7.99995
H  7.99765  5.98652  8.00052
H  8.802  4.42678  8.00013
O  8.00093  2.0003  8.00001
H  7.99691  2.98641  7.99982
H  8.80192  1.42683  8.00009
O  8.0002  -0.999301  7.99994
H  7.9984  -0.0145946  8.00048
H  8.81099  -2.41459  8.00017
O  8.00083  8.00029  -1.99997
H  7.99886  8.98634  -2.00015
H  8.8024  7.42733  -2.00021
O  8.00086  5.00038  -1.99995
H  7.99785  5.98652  -2.00057
H  8.80202  4.42672  -2.00011
O  8.00094  2.00029  -2.00002
H  7.99677  2.98638  -1.99973
H  8.80193  1.42689  -2.00007
O  8.00018  -0.999294  -1.99994
H  7.99859  -0.0145463  -2.00054
H  8.81103  -2.41462  -2.00015
O  -2.00084  8.00029  7.99996
H  -1.99882  8.98634  8.00019
H  -2.80237  7.42734  8.00029
O  -2.00087  5.00038  7.99993
H  -1.99771  5.98652  8.00071
H  -2.80201  4.42669  8.00015
O  -2.00094  2.00029  8.00002
H  -1.99682  2.98638  7.99967
H  -2.80191  1.42692  8.0001
O  -2.00019  -0.999294  7.99992
H  -1.99846  -0.0145463  8.00067
H  -2.81101  -2.41463  8.00021
O  -2.00083  8.00027  -1.99996
H  -1.99885  8.98638  -2.00017
H  -2.80245  7.42739  -2.00028
O  -2.00085  5.0004  -1.99992
H  -1.99798  5.98653  -2.00085
H  -2.80204  4.42659  -2.00015
O  -2.00096  2.00026  -2.00003
H  -1.9966  2.98632  -1.99951
H  -2.80192  1.42702  -2.00008
O  -2.00017  -0.999282  -1.99991
H  -1.99873  -0.0144802  -2.00081
H  -2.81106  -2.41467  -2.0002
75
 Time: 0.9 fs -- step count: 9
Na  -3.97911e-05  -2.32497e-05  -7.54126e-05
Cl  -5.17183e-05  -4.75056e-05  2.8
Na  -2.86225e-05  -1.88191e-05  5.60007
Cl  -4.03709e-05  2.80001  -1.35329e-05
Na  -4.56943e-05  2.79999  2.8
Cl  -4.63645e-05  2.80001  5.60002
Na  -2.63874e-05  5.59999  -6.60057e-05
Cl  -5.40665e-05  5.60005  2.8
Na  -1.6768e-05  5.6  5.60006
Cl  2.8  -4.91706e-05  -3.56596e-05
Na  2.8  -5.42904e-05  2.8
Cl  2.8  -4.90428e-05  5.60004
Na  2.8  2.79999  -7.35279e-05
Cl  2.8  2.8  2.8
Na  2.8  2.79999  5.60007
Cl  2.8  5.60005  -3.70456e-05
Na  2.8  5.60005  2.8
Cl  2.8  5.60005  5.60004
Na  5.60004  -1.78805e-05  -6.33573e-05
Cl  5.60005  -4.77843e-05  2.8
Na  5.60003  -1.57045e-05  5.60006
Cl  5.60004  2.80001  -2.02732e-05
Na  5.60005  2.79999  2.8
Cl  5.60004  2.80001  5.60002
Na  5.60003  5.6  -5.5244e-05
Cl  5.60005  5.60005  2.8
Na  5.60002  5.6  5.60005
O  8.00105  8.00037  7.99996
H  7.99855  8.98286  8.00021
H  8.7995  7.42948  8.00028
O  8.0011  5.00045  7.99994
H  7.99707  5.98313  8.00064
H  8.79907  4.42883  8.00016
O  8.00116  2.00038  8.00001
H  7.99614  2.98299  7.99977
H  8.79898  1.4289  8.00011
O  8.00025  -0.999124  7.99993
H  7.99801  -0.0182682  8.0006
H  8.81034  -2.41358  8.00021
O  8.00104  8.00036  -1.99996
H  7.99858  8.9829  -2.00019
H  8.79957  7.42952  -2.00026
O  8.00107  5.00047  -1.99993
H  7.99731  5.98313  -2.00072
H  8.79911  4.42876  -2.00014
O  8.00118  2.00036  -2.00002
H  7.99596  2.98295  -1.99966
H  8.79899  1.42897  -2.00009
O  8.00022  -0.999116  -1.99992
H  7.99825  -0.018208  -2.00067
H  8.81039  -2.41362  -2.00019
O  -2.00105  8.00036  7.99995
H  -1.99853  8.9829  8.00023
H  -2.79954  7.42954  8.00036
O  -2.00109  5.00047  7.99992
H  -1.99714  5.98313  8.00089
H  -2.79909  4.42872  8.00019
O  -2.00117  2.00036  8.00002
H  -1.99603  2.98295  7.99959
H  -2.79897  1.42901  8.00012
O  -2.00024  -0.999116  7.9999
H  -1.99808  -0.0182079  8.00084
H  -2.81036  -2.41364  8.00027
O  -2.00104  8.00034  -1.99995
H  -1.99856  8.98296  -2.00022
H  -2.79964  7.4296  -2.00035
O  -2.00106  5.0005  -1.9999
H  -1.99748  5.98315  -2.00106
H  -2.79913  4.4286  -2.00018
O  -2.0012  2.00033  -2.00004
H  -1.99576  2.98289  -1.99938
H  -2.79898  1.42913  -2.0001
O  -2.00021  -0.999101  -1.99988
H  -1.99842  -0.0181254  -2.00101
H  -2.81042  -2.41369  -2.00025
75
 Time: 1 fs -- step count: 10
Na  -4.86327e-05  -2.84134e-05  -9.21393e-05
Cl  -6.32021e-05  -5.80605e-05  2.8
Na  -3.49864e-05  -2.30001e-05  5.60008
Cl  -4.93485e-05  2.80002  -1.65722e-05
Na  -5.58633e-05  2.79999  2.8
Cl  -5.66659e-05  2.80001  5.60002
Na  -3.22434e-05  5.59999  -8.0627e-05
Cl  -6.60702e-05  5.60006  2.8
Na  -2.04956e-05  5.6  5.60007
Cl  2.8  -6.00925e-05  -4.35884e-05
Na  2.8  -6.63575e-05  2.8
Cl  2.8  -5.99365e-05  5.60004
Na  2.8  2.79999  -8.9855e-05
Cl  2.8  2.80001  2.8
Na  2.8  2.79999  5.60009
Cl  2.8  5.60007  -4.52837e-05
Na  2.8  5.60006  2.8
Cl  2.8  5.60007  5.60004
Na  5.60005  -2.18546e-05  -7.74103e-05
Cl  5.60006  -5.84007e-05  2.8
Na  5.60004  -1.91958e-05  5.60007
Cl  5.60005  2.80001  -2.48016e-05
Na  5.60006  2.79999  2.8
Cl  5.60005  2.80001  5.60003
Na  5.60004  5.6  -6.74843e-05
Cl  5.60006  5.60007  2.8
Na  5.60003  5.6  5.60006
O  8.00128  8.00045  7.99995
H  7.99823  8.97902  8.00025
H  8.79634  7.43191  8.00034
O  8.00134  5.00056  7.99993
H  7.99642  5.97935  8.00079
H  8.79582  4.43112  8.00019
O  8.00142  2.00046  8.00001
H  7.99529  2.97919  7.99972
H  8.7957  1.4312  8.00013
O  8.0003  -0.998928  7.99991
H  7.99757  -0.0223619  8.00073
H  8.80961  -2.41246  8.00026
O  8.00127  8.00044  -1.99995
H  7.99826  8.97908  -2.00023
H  8.79643  7.43196  -2.00032
O  8.00131  5.00058  -1.99992
H  7.99672  5.97935  -2.00087
H  8.79586  4.43103  -2.00017
O  8.00144  2.00044  -2.00003
H  7.99507  2.97914  -1.99958
H  8.79571  1.43129  -2.00011
O  8.00027  -0.998917  -1.9999
H  7.99787  -0.0222883  -2.00082
H  8.80967  -2.41251  -2.00023
O  -2.00129  8.00044  7.99993
H  -1.9982  8.97908  8.00029
H  -2.79639  7.43198  8.00044
O  -2.00133  5.00058  7.9999
H  -1.99651  5.97935  8.00109
H  -2.79583  4.43098  8.00024
O  -2.00143  2.00044  8.00003
H  -1.99516  2.97914  7.9995
H  -2.79569  1.43134  8.00015
O  -2.0003  -0.998917  7.99988
H  -1.99766  -0.0222882  8.00103
H  -2.80963  -2.41253  8.00032
O  -2.00127  8.00042  -1.99993
H  -1.99824  8.97915  -2.00026
H  -2.79651  7.43205  -2.00042
O  -2.0013  5.00061  -1.99988
H  -1.99693  5.97937  -2.00129
H  -2.79589  4.43083  -2.00022
O  -2.00146  2.0004  -2.00005
H  -1.99482  2.97906  -1.99925
H  -2.7957  1.43149  -2.00012
O  -2.00025  -0.998899  -1.99986
H  -1.99808  -0.0221874  -2.00124
H  -2.80971  -2.4126  -2.0003
75
 Time: 1.1 fs -- step count: 11
Na  -5.8358e-05  -3.40922e-05  -0.000110526
Cl  -7.58304e-05  -6.96701e-05  2.8
Na  -4.19882e-05  -2.75988e-05  5.6001
Cl  -5.92263e-05  2.80002  -1.99289e-05
Na  -6.70555e-05  2.79999  2.8
Cl  -6.79966e-05  2.80001  5.60003
Na  -3.86815e-05  5.59999  -9.66909e-05
Cl  -7.92696e-05  5.60008  2.8
Na  -2.45966e-05  5.6  5.60009
Cl  2.8  -7.21045e-05  -5.2312e-05
Na  2.8  -7.96324e-05  2.8
Cl  2.8  -7.19177e-05  5.60005
Na  2.8  2.79999  -0.00010781
Cl  2.8  2.80001  2.8
Na  2.8  2.79999  5.60011
Cl  2.8  5.60008  -5.43481e-05
Na  2.8  5.60007  2.8
Cl  2.8  5.60008  5.60005
Na  5.60006  -2.62264e-05  -9.28575e-05
Cl  5.60007  -7.00778e-05  2.8
Na  5.60005  -2.30368e-05  5.60009
Cl  5.60006  2.80001  -2.97926e-05
Na  5.60007  2.79999  2.8
Cl  5.60006  2.80001  5.60003
Na  5.60004  5.6  -8.09333e-05
Cl  5.60008  5.60008  2.8
Na  5.60003  5.6  5.60007
O  8.00154  8.00054  7.99994
H  7.99787  8.97479  8.0003
H  8.79285  7.43459  8.00041
O  8.00161  5.00067  7.99991
H  7.99572  5.97519  8.00094
H  8.79222  4.43364  8.00023
O  8.00171  2.00056  8.00002
H  7.99436  2.97499  7.99966
H  8.79208  1.43374  8.00016
O  8.00036  -0.998711  7.99989
H  7.9971  -0.0268793  8.00088
H  8.8088  -2.41124  8.00031
O  8.00153  8.00053  -1.99994
H  7.99792  8.97486  -2.00027
H  8.79296  7.43464  -2.00038
O  8.00158  5.0007  -1.9999
H  7.99608  5.97519  -2.00105
H  8.79227  4.43353  -2.00021
O  8.00173  2.00053  -2.00003
H  7.9941  2.97493  -1.9995
H  8.7921  1.43385  -2.00013
O  8.00032  -0.998698  -1.99988
H  7.99745  -0.0267911  -2.00099
H  8.80888  -2.41129  -2.00028
O  -2.00155  8.00053  7.99992
H  -1.99785  8.97486  8.00034
H  -2.79291  7.43467  8.00052
O  -2.0016  5.0007  7.99988
H  -1.99582  5.97519  8.0013
H  -2.79224  4.43347  8.00028
O  -2.00172  2.00053  8.00004
H  -1.9942  2.97493  7.9994
H  -2.79206  1.43391  8.00017
O  -2.00035  -0.998698  7.99985
H  -1.9972  -0.0267909  8.00123
H  -2.80883  -2.41132  8.00039
O  -2.00153  8.00051  -1.99992
H  -1.99789  8.97494  -2.00032
H  -2.79305  7.43475  -2.00051
O  -2.00156  5.00074  -1.99986
H  -1.99632  5.97521  -2.00155
H  -2.79231  4.4333  -2.00027
O  -2.00176  2.00049  -2.00006
H  -1.9938  2.97483  -1.9991
H  -2.79208  1.43408  -2.00014
O  -2.0003  -0.998677  -1.99983
H  -1.9977  -0.0266702  -2.00149
H  -2.80893  -2.41139  -2.00036
75
 Time: 1.2 fs -- step count: 12
Na  -6.89672e-05  -4.02857e-05  -0.000130567
Cl  -8.9602e-05  -8.23342e-05  2.8
Na  -4.96283e-05  -3.2615e-05  5.60012
Cl  -7.00053e-05  2.80002  -2.36069e-05
Na  -7.92726e-05  2.79999  2.8
Cl  -8.03565e-05  2.80002  5.60003
Na  -4.5701e-05  5.59999  -0.000114192
Cl  -9.36634e-05  5.60009  2.8
Na  -2.9071e-05  5.6  5.6001
Cl  2.8  -8.5206e-05  -6.18309e-05
Na  2.8  -9.41155e-05  2.8
Cl  2.8  -8.49858e-05  5.60006
Na  2.8  2.79999  -0.00012739
Cl  2.8  2.80001  2.8
Na  2.8  2.79999  5.60013
Cl  2.8  5.60009  -6.42394e-05
Na  2.8  5.60008  2.8
Cl  2.8  5.60009  5.60006
Na  5.60007  -3.0996e-05  -0.000109696
Cl  5.60009  -8.28152e-05  2.8
Na  5.60006  -2.72277e-05  5.6001
Cl  5.60007  2.80002  -3.52491e-05
Na  5.60009  2.79999  2.8
Cl  5.60007  2.80001  5.60004
Na  5.60005  5.6  -9.55868e-05
Cl  5.60009  5.60009  2.8
Na  5.60004  5.6  5.60009
O  8.00183  8.00064  7.99992
H  7.99749  8.97017  8.00035
H  8.78903  7.43752  8.00048
O  8.00191  5.00079  7.9999
H  7.99495  5.97063  8.00112
H  8.78829  4.43639  8.00027
O  8.00202  2.00066  8.00002
H  7.99335  2.97039  7.9996
H  8.78812  1.43652  8.00019
O  8.00043  -0.998473  7.99987
H  7.99658  -0.0318247  8.00104
H  8.80793  -2.40989  8.00037
O  8.00181  8.00062  -1.99993
H  7.99754  8.97025  -2.00032
H  8.78915  7.43758  -2.00045
O  8.00187  5.00082  -1.99989
H  7.99537  5.97063  -2.00124
H  8.78835  4.43626  -2.00025
O  8.00204  2.00063  -2.00004
H  7.99304  2.97032  -1.99941
H  8.78814  1.43664  -2.00015
O  8.00038  -0.998458  -1.99986
H  7.99699  -0.0317205  -2.00117
H  8.80801  -2.40996  -2.00033
O  -2.00183  8.00062  7.99991
H  -1.99745  8.97025  8.00041
H  -2.7891  7.43761  8.00062
O  -2.0019  5.00082  7.99986
H  -1.99507  5.97063  8.00154
H  -2.78831  4.4362  8.00033
O  -2.00204  2.00063  8.00004
H  -1.99316  2.97032  7.99929
H  -2.7881  1.43671  8.00021
O  -2.00042  -0.998458  7.99983
H  -1.99671  -0.0317203  8.00145
H  -2.80796  -2.40999  8.00046
O  -2.00181  8.0006  -1.99991
H  -1.99751  8.97035  -2.00037
H  -2.78926  7.43771  -2.0006
O  -2.00184  5.00087  -1.99983
H  -1.99566  5.97065  -2.00183
H  -2.78839  4.43599  -2.00032
O  -2.00208  2.00058  -2.00008
H  -1.99268  2.97021  -1.99893
H  -2.78812  1.43692  -2.00017
O  -2.00036  -0.998433  -1.9998
H  -1.99729  -0.0315778  -2.00175
H  -2.80807  -2.41008  -2.00043
75
 Time: 1.3 fs -- step count: 13
Na  -8.046e-05  -4.69935e-05  -0.000152261
Cl  -0.000104516  -9.60525e-05  2.8
Na  -5.79071e-05  -3.80486e-05  5.60014
Cl  -8.16862e-05  2.80003  -2.76104e-05
Na  -9.25165e-05  2.79998  2.79999
Cl  -9.37453e-05  2.80002  5.60004
Na  -5.33008e-05  5.59999  -0.000133123
Cl  -0.00010925  5.60011  2.8
Na  -3.39192e-05  5.6  5.60012
Cl  2.8  -9.93965e-05  -7.21457e-05
Na  2.8  -0.000109807  2.8
Cl  2.8  -9.91401e-05  5.60007
Na  2.8  2.79998  -0.000148595
Cl  2.8  2.80001  2.8
Na  2.8  2.79999  5.60015
Cl  2.8  5.60011  -7.49584e-05
Na  2.8  5.60009  2.8
Cl  2.8  5.60011  5.60007
Na  5.60009  -3.61634e-05  -0.000127922
Cl  5.6001  -9.66127e-05  2.8
Na  5.60007  -3.17686e-05  5.60012
Cl  5.60008  2.80002  -4.1174e-05
Na  5.6001  2.79998  2.8
Cl  5.60009  2.80002  5.60005
Na  5.60006  5.59999  -0.00011144
Cl  5.6001  5.60011  2.8
Na  5.60004  5.6  5.6001
O  8.00213  8.00075  7.99991
H  7.99707  8.96514  8.00041
H  8.78487  7.44069  8.00056
O  8.00223  5.00092  7.99988
H  7.99412  5.96567  8.0013
H  8.78402  4.43939  8.00032
O  8.00236  2.00077  8.00002
H  7.99226  2.9654  7.99954
H  8.78381  1.43953  8.00022
O  8.0005  -0.998214  7.99985
H  7.99602  -0.0372027  8.00121
H  8.80698  -2.40844  8.00043
O  8.00211  8.00073  -1.99991
H  7.99713  8.96523  -2.00037
H  8.78502  7.44077  -2.00052
O  8.00218  5.00096  -1.99987
H  7.99461  5.96567  -2.00144