75
 Time: 0 fs -- step count: 0
Na  0  0  0
Cl  0  0  2.8
Na  0  0  5.6
Cl  0  2.8  0
Na  0  2.8  2.8
Cl  0  2.8  5.6
Na  0  5.6  0
Cl  0  5.6  2.8
Na  0  5.6  5.6
Cl  2.8  0  0
Na  2.8  0  2.8
Cl  2.8  0  5.6
Na  2.8  2.8  0
Cl  2.8  2.8  2.8
Na  2.8  2.8  5.6
Cl  2.8  5.6  0
Na  2.8  5.6  2.8
Cl  2.8  5.6  5.6
Na  5.6  0  0
Cl  5.6  0  2.8
Na  5.6  0  5.6
Cl  5.6  2.8  0
Na  5.6  2.8  2.8
Cl  5.6  2.8  5.6
Na  5.6  5.6  0
Cl  5.6  5.6  2.8
Na  5.6  5.6  5.6
O  8  8  8
H  8  9  8
H  8.81362  7.4186  8
O  8  5  8
H  8  6  8
H  8.81362  4.4186  8
O  8  2  8
H  8  3  8
H  8.81362  1.4186  8
O  8  -1  8
H  8  0  8
H  8.81362  -2.4186  8
O  8  8  -2
H  8  9  -2
H  8.81362  7.4186  -2
O  8  5  -2
H  8  6  -2
H  8.81362  4.4186  -2
O  8  2  -2
H  8  3  -2
H  8.81362  1.4186  -2
O  8  -1  -2
H  8  0  -2
H  8.81362  -2.4186  -2
O  -2  8  8
H  -2  9  8
H  -2.81362  7.4186  8
O  -2  5  8
H  -2  6  8
H  -2.81362  4.4186  8
O  -2  2  8
H  -2  3  8
H  -2.81362  1.4186  8
O  -2  -1  8
H  -2  0  8
H  -2.81362  -2.4186  8
O  -2  8  -2
H  -2  9  -2
H  -2.81362  7.4186  -2
O  -2  5  -2
H  -2  6  -2
H  -2.81362  4.4186  -2
O  -2  2  -2
H  -2  3  -2
H  -2.81362  1.4186  -2
O  -2  -1  -2
H  -2  0  -2
H  -2.81362  -2.4186  -2
75
 Time: 1 fs -- step count: 1
Na  7.66828e+33  9.06431e+33  4.57448e+33
Cl  3.90441e+33  4.26313e+33  2.64981e+34
Na  8.62154e+33  9.44815e+33  2.52883e+34
Cl  4.92094e+33  2.04889e+34  1.18445e+34
Na  7.05307e+33  1.11868e+34  4.03578e+34
Cl  4.4458e+33  2.02209e+34  8.25048e+33
Na  8.82803e+33  1.17232e+34  1.24317e+34
Cl  3.7013e+33  6.77425e+33  2.64439e+34
Na  9.64889e+33  1.21431e+34  1.73412e+34
Cl  1.49909e+34  7.073e+33  8.25322e+33
Na  1.12926e+34  8.81742e+33  4.04605e+34
Cl  1.49587e+34  7.08438e+33  1.14526e+34
Na  1.11427e+34  2.92124e+34  1.42375e+34
Cl  9.3284e+33  8.07152e+33  2.63988e+34
Na  1.11848e+34  2.9231e+34  1.62569e+34
Cl  1.49387e+34  8.58744e+33  1.27038e+34
Na  1.13227e+34  6.75796e+33  4.04839e+34
Cl  1.49138e+34  8.56651e+33  7.00967e+33
Na  1.12282e+34  1.42483e+34  1.03231e+34
Cl  5.16988e+33  5.52388e+33  2.64807e+34
Na  1.03688e+34  1.44366e+34  1.97735e+34
Cl  4.06241e+33  2.02087e+34  1.25899e+34
Na  4.50312e+33  1.12175e+34  4.03725e+34
Cl  4.50141e+33  2.00656e+34  7.35286e+33
Na  1.01419e+34  7.35549e+33  1.80702e+34
Cl  5.36778e+33  5.5032e+33  2.64365e+34
Na  9.43812e+33  7.58159e+33  1.19992e+34
O  9.93278e+34  3.98834e+34  4.04662e+33
H  -1.62386e+35  2.05934e+36  -1.90676e+34
H  1.37643e+36  -6.76587e+35  -2.55253e+34
O  9.53488e+34  3.31819e+34  5.66904e+33
H  -3.57033e+34  2.03043e+36  -5.98561e+34
H  -1.2188e+35  1.21759e+35  -3.46249e+34
O  8.58102e+34  2.2177e+34  -5.1504e+33
H  -6.65373e+33  2.3291e+36  -5.55061e+34
H  1.45915e+36  -6.04851e+35  3.17437e+34
O  2.5085e+34  6.62536e+34  1.03186e+34
H  -7.53375e+33  1.86997e+36  -5.91021e+34
H  2.333e+35  -3.61155e+35  -7.45967e+34
O  9.06784e+34  3.03378e+34  7.37057e+32
H  -2.2612e+35  2.00167e+36  6.63036e+34
H  1.36731e+36  -6.67565e+35  -3.53382e+34
O  9.48697e+34  4.01362e+34  -1.82456e+34
H  4.5101e+34  2.04617e+36  -7.92251e+34
H  1.40179e+36  -6.25511e+35  1.13399e+35
O  8.62591e+34  5.48236e+34  1.03328e+34
H  1.34065e+35  1.98358e+36  4.17773e+34
H  1.40809e+36  -7.56697e+35  -3.7084e+34
O  2.38717e+34  7.47336e+34  -9.18004e+33
H  5.40124e+34  1.85077e+36  6.53093e+34
H  2.72595e+35  -4.33303e+35  1.16721e+34
O  -9.84803e+34  3.98979e+34  4.62648e+33
H  1.56446e+35  2.0621e+36  -1.98624e+34
H  -1.37868e+36  -6.76163e+35  -3.04868e+34
O  -9.46779e+34  3.09965e+34  7.2493e+33
H  3.333e+34  2.03577e+36  -7.86277e+34
H  -1.41886e+36  -6.17115e+35  -1.7868e+34
O  -8.55016e+34  4.66292e+34  -1.83179e+33
H  -6.99493e+34  2.02801e+36  3.17413e+34
H  -1.43024e+36  -7.26713e+35  -1.27386e+34
O  -2.18275e+34  7.63739e+34  9.08893e+33
H  -7.49133e+34  1.84893e+36  -7.64349e+34
H  -2.78e+35  -4.2807e+35  -2.4456e+34
O  -9.89298e+34  4.0816e+34  -4.61667e+33
H  -2  9  -2
H  -2.81362  7.4186  -2
O  -2  5  -2
H  -2  6  -2
H  -2.81362  4.4186  -2
O  -2  2  -2
H  -2  3  -2
H  -2.81362  1.4186  -2
O  -2  -1  -2
H  -2  0  -2
H  -2.81362  -2.4186  -2
75
 Time: 2 fs -- step count: 2
Na  1.53366e+34  1.81286e+34  9.14897e+33
Cl  7.80882e+33  8.52626e+33  5.29961e+34
Na  1.72431e+34  1.88963e+34  5.05766e+34
Cl  9.84187e+33  4.09777e+34  2.3689e+34
Na  1.41061e+34  2.23735e+34  8.07156e+34
Cl  8.89161e+33  4.04417e+34  1.6501e+34
Na  1.76561e+34  2.34463e+34  2.48635e+34
Cl  7.40261e+33  1.35485e+34  5.28879e+34
Na  1.92978e+34  2.42861e+34  3.46824e+34
Cl  2.99818e+34  1.4146e+34  1.65064e+34
Na  2.25852e+34  1.76348e+34  8.0921e+34
Cl  2.99174e+34  1.41688e+34  2.29052e+34
Na  2.22855e+34  5.84248e+34  2.8475e+34
Cl  1.86568e+34  1.6143e+34  5.27976e+34
Na  2.23696e+34  5.8462e+34  3.25137e+34
Cl  2.98774e+34  1.71749e+34  2.54076e+34
Na  2.26454e+34  1.35159e+34  8.09677e+34
Cl  2.98275e+34  1.7133e+34  1.40193e+34
Na  2.24564e+34  2.84965e+34  2.06463e+34
Cl  1.03398e+34  1.10478e+34  5.29613e+34
Na  2.07376e+34  2.88731e+34  3.95471e+34
Cl  8.12482e+33  4.04175e+34  2.51798e+34
Na  9.00625e+33  2.24351e+34  8.0745e+34
Cl  9.00283e+33  4.01312e+34  1.47057e+34
Na  2.02837e+34  1.4711e+34  3.61405e+34
Cl  1.07356e+34  1.10064e+34  5.2873e+34
Na  1.88762e+34  1.51632e+34  2.39984e+34
O  1.98656e+35  7.97668e+34  8.09324e+33
H  -3.24773e+35  4.11868e+36  -3.81353e+34
H  2.75285e+36  -1.35317e+36  -5.10506e+34
O  1.90698e+35  6.63638e+34  1.13381e+34
H  -7.14067e+34  4.06086e+36  -1.19712e+35
H  -2.43759e+35  2.43517e+35  -6.92498e+34
O  1.7162e+35  4.43541e+34  -1.03008e+34
H  -1.33075e+34  4.65821e+36  -1.11012e+35
H  2.9183e+36  -1.2097e+36  6.34875e+34
O  5.017e+34  1.32507e+35  2.06372e+34
H  -1.50675e+34  3.73995e+36  -1.18204e+35
H  4.66599e+35  -7.22309e+35  -1.49193e+35
O  1.81357e+35  6.06757e+34  1.47411e+33
H  -4.52239e+35  4.00333e+36  1.32607e+35
H  2.73463e+36  -1.33513e+36  -7.06765e+34
O  1.89739e+35  8.02724e+34  -3.64911e+34
H  9.0202e+34  4.09233e+36  -1.5845e+35
H  2.80358e+36  -1.25102e+36  2.26797e+35
O  1.72518e+35  1.09647e+35  2.06656e+34
H  2.6813e+35  3.96717e+36  8.35545e+34
H  2.81617e+36  -1.51339e+36  -7.4168e+34
O  4.77433e+34  1.49467e+35  -1.83601e+34
H  1.08025e+35  3.70155e+36  1.30619e+35
H  5.45191e+35  -8.66605e+35  2.33442e+34
O  -1.96961e+35  7.97959e+34  9.25297e+33
H  3.12892e+35  4.1242e+36  -3.97247e+34
H  -2.75736e+36  -1.35233e+36  -6.09737e+34
O  -1.89356e+35  6.19931e+34  1.44986e+34
H  6.66599e+34  4.07155e+36  -1.57255e+35
H  -2.83771e+36  -1.23423e+36  -3.5736e+34
O  -1.71003e+35  9.32583e+34  -3.66357e+33
H  -1.39899e+35  4.05602e+36  6.34827e+34
H  -2.86047e+36  -1.45343e+36  -2.54771e+34
O  -4.36549e+34  1.52748e+35  1.81779e+34
H  -1.49827e+35  3.69786e+36  -1.5287e+35
H  -5.56001e+35  -8.5614e+35  -4.8912e+34
O  -1.9786e+35  8.1632e+34  -9.23334e+33
H  -2  9  -2
H  -2.81362  7.4186  -2
O  -2  5  -2
H  -2  6  -2
H  -2.81362  4.4186  -2
O  -2  2  -2
H  -2  3  -2
H  -2.81362  1.4186  -2
O  -2  -1  -2
H  -2  0  -2
H  -2.81362  -2.4186  -2
75
 Time: 3 fs -- step count: 3
Na  2.30048e+34  2.71929e+34  1.37235e+34
Cl  1.17132e+34  1.27894e+34  7.94942e+34
Na  2.58646e+34  2.83444e+34  7.5865e+34
Cl  1.47628e+34  6.14666e+34  3.55334e+34
Na  2.11592e+34  3.35603e+34  1.21073e+35
Cl  1.33374e+34  6.06626e+34  2.47514e+34
Na  2.64841e+34  3.51695e+34  3.72952e+34
Cl  1.11039e+34  2.03228e+34  7.93318e+34
Na  2.89467e+34  3.64292e+34  5.20237e+34
Cl  4.49726e+34  2.1219e+34  2.47597e+34
Na  3.38778e+34  2.64523e+34  1.21382e+35
Cl  4.4876e+34  2.12531e+34  3.43578e+34
Na  3.34282e+34  8.76372e+34  4.27126e+34
Cl  2.79852e+34  2.42146e+34  7.91964e+34
Na  3.35544e+34  8.76929e+34  4.87706e+34
Cl  4.48162e+34  2.57623e+34  3.81114e+34
Na  3.3968e+34  2.02739e+34  1.21452e+35
Cl  4.47413e+34  2.56995e+34  2.1029e+34
Na  3.36847e+34  4.27448e+34  3.09694e+34
Cl  1.55097e+34  1.65716e+34  7.9442e+34
Na  3.11064e+34  4.33097e+34  5.93206e+34
Cl  1.21872e+34  6.06262e+34  3.77697e+34
Na  1.35094e+34  3.36526e+34  1.21118e+35
Cl  1.35042e+34  6.01968e+34  2.20586e+34
Na  3.04256e+34  2.20665e+34  5.42107e+34
Cl  1.61033e+34  1.65096e+34  7.93095e+34
Na  2.83144e+34  2.27448e+34  3.59975e+34
O  2.97983e+35  1.1965e+35  1.21399e+34
H  -4.87159e+35  6.17802e+36  -5.72029e+34
H  4.12928e+36  -2.02976e+36  -7.65759e+34
O  2.86046e+35  9.95457e+34  1.70071e+34
H  -1.0711e+35  6.09129e+36  -1.79568e+35
H  -3.65639e+35  3.65276e+35  -1.03875e+35
O  2.5743e+35  6.65311e+34  -1.54512e+34
H  -1.99612e+34  6.98731e+36  -1.66518e+35
H  4.37744e+36  -1.81455e+36  9.52312e+34
O  7.5255e+34  1.98761e+35  3.09557e+34
H  -2.26012e+34  5.60992e+36  -1.77306e+35
H  6.99899e+35  -1.08346e+36  -2.2379e+35
O  2.72035e+35  9.10135e+34  2.21117e+33
H  -6.78359e+35  6.005e+36  1.98911e+35
H  4.10194e+36  -2.0027e+36  -1.06015e+35
O  2.84609e+35  1.20409e+35  -5.47367e+34
H  1.35303e+35  6.1385e+36  -2.37675e+35
H  4.20537e+36  -1.87653e+36  3.40196e+35
O  2.58777e+35  1.64471e+35  3.09984e+34
H  4.02195e+35  5.95075e+36  1.25332e+35
H  4.22426e+36  -2.27009e+36  -1.11252e+35
O  7.1615e+34  2.24201e+35  -2.75401e+34
H  1.62037e+35  5.55232e+36  1.95928e+35
H  8.17786e+35  -1.29991e+36  3.50163e+34
O  -2.95441e+35  1.19694e+35  1.38794e+34
H  4.69338e+35  6.1863e+36  -5.95871e+34
H  -4.13604e+36  -2.02849e+36  -9.14605e+34
O  -2.84034e+35  9.29896e+34  2.17479e+34
H  9.99899e+34  6.10732e+36  -2.35883e+35
H  -4.25657e+36  -1.85134e+36  -5.3604e+34
O  -2.56505e+35  1.39887e+35  -5.49536e+33
H  -2.09848e+35  6.08404e+36  9.5224e+34
H  -4.29071e+36  -2.18014e+36  -3.82157e+34
O  -6.54824e+34  2.29122e+35  2.72668e+34
H  -2.2474e+35  5.54679e+36  -2.29305e+35
H  -8.34001e+35  -1.28421e+36  -7.33681e+34
O  -2.9679e+35  1.22448e+35  -1.385e+34
H  -2  9  -2
H  -2.81362  7.4186  -2
O  -2  5  -2
H  -2  6  -2
H  -2.81362  4.4186  -2
O  -2  2  -2
H  -2  3  -2
H  -2.81362  1.4186  -2
O  -2  -1  -2
H  -2  0  -2
H  -2.81362  -2.4186  -2
75
 Time: 4 fs -- step count: 4
Na  3.06731e+34  3.62573e+34  1.82979e+34
Cl  1.56176e+34  1.70525e+34  1.05992e+35
Na  3.44862e+34  3.77926e+34  1.01153e+35
Cl  1.96837e+34  8.19554e+34  4.73779e+34
Na  2.82123e+34  4.4747e+34  1.61431e+35
Cl  1.77832e+34  8.08834e+34  3.30019e+34
Na  3.53121e+34  4.68927e+34  4.97269e+34
Cl  1.48052e+34  2.7097e+34  1.05776e+35
Na  3.85956e+34  4.85722e+34  6.93649e+34
Cl  5.99635e+34  2.8292e+34  3.30129e+34
Na  4.51704e+34  3.52697e+34  1.61842e+35
Cl  5.98347e+34  2.83375e+34  4.58104e+34
Na  4.45709e+34  1.1685e+35  5.69501e+34
Cl  3.73136e+34  3.22861e+34  1.05595e+35
Na  4.47392e+34  1.16924e+35  6.50275e+34
Cl  5.97549e+34  3.43497e+34  5.08153e+34
Na  4.52907e+34  2.70318e+34  1.61935e+35
Cl  5.9655e+34  3.4266e+34  2.80387e+34
Na  4.49129e+34  5.6993e+34  4.12926e+34
Cl  2.06795e+34  2.20955e+34  1.05923e+35
Na  4.14752e+34  5.77462e+34  7.90942e+34
Cl  1.62496e+34  8.0835e+34  5.03596e+34
Na  1.80125e+34  4.48702e+34  1.6149e+35
Cl  1.80057e+34  8.02624e+34  2.94114e+34
Na  4.05674e+34  2.9422e+34  7.2281e+34
Cl  2.14711e+34  2.20128e+34  1.05746e+35
Na  3.77525e+34  3.03263e+34  4.79967e+34
O  3.97311e+35  1.59534e+35  1.61865e+34
H  -6.49546e+35  8.23736e+36  -7.62705e+34
H  5.50571e+36  -2.70635e+36  -1.02101e+35
O  3.81395e+35  1.32728e+35  2.26761e+34
H  -1.42813e+35  8.12172e+36  -2.39424e+35
H  -4.87519e+35  4.87034e+35  -1.385e+35
O  3.43241e+35  8.87081e+34  -2.06016e+34
H  -2.66149e+34  9.31642e+36  -2.22024e+35
H  5.83659e+36  -2.4194e+36  1.26975e+35
O  1.0034e+35  2.65014e+35  4.12743e+34
H  -3.0135e+34  7.4799e+36  -2.36408e+35
H  9.33199e+35  -1.44462e+36  -2.98387e+35
O  3.62714e+35  1.21351e+35  2.94823e+33
H  -9.04479e+35  8.00667e+36  2.65214e+35
H  5.46926e+36  -2.67026e+36  -1.41353e+35
O  3.79479e+35  1.60545e+35  -7.29822e+34
H  1.80404e+35  8.18466e+36  -3.16901e+35
H  5.60716e+36  -2.50204e+36  4.53594e+35
O  3.45036e+35  2.19294e+35  4.13312e+34
H  5.3626e+35  7.93433e+36  1.67109e+35
H  5.63235e+36  -3.02679e+36  -1.48336e+35
O  9.54867e+34  2.98935e+35  -3.67201e+34
H  2.1605e+35  7.4031e+36  2.61237e+35
H  1.09038e+36  -1.73321e+36  4.66884e+34
O  -3.93921e+35  1.59592e+35  1.85059e+34
H  6.25784e+35  8.24839e+36  -7.94494e+34
H  -5.51472e+36  -2.70465e+36  -1.21947e+35
O  -3.78711e+35  1.23986e+35  2.89972e+34
H  1.3332e+35  8.1431e+36  -3.14511e+35
H  -5.67542e+36  -2.46846e+36  -7.1472e+34
O  -3.42007e+35  1.86517e+35  -7.32715e+33
H  -2.79797e+35  8.11205e+36  1.26965e+35
H  -5.72094e+36  -2.90685e+36  -5.09543e+34
O  -8.73099e+34  3.05495e+35  3.63557e+34
H  -2.99653e+35  7.39572e+36  -3.0574e+35
H  -1.112e+36  -1.71228e+36  -9.78241e+34
O  -3.95719e+35  1.63264e+35  -1.84667e+34
H  -2  9  -2
H  -2.81362  7.4186  -2
O  -2  5  -2
H  -2  6  -2
H  -2.81362  4.4186  -2
O  -2  2  -2
H  -2  3  -2
H  -2.81362  1.4186  -2
O  -2  -1  -2
H  -2  0  -2
H  -2.81362  -2.4186  -2
75
 Time: 5 fs -- step count: 5
Na  3.83414e+34  4.53216e+34  2.28724e+34
Cl  1.95221e+34  2.13157e+34  1.3249e+35
Na  4.31077e+34  4.72407e+34  1.26442e+35
Cl  2.46047e+34  1.02444e+35  5.92224e+34
Na  3.52653e+34  5.59338e+34  2.01789e+35
Cl  2.2229e+34  1.01104e+35  4.12524e+34
Na  4.41402e+34  5.86158e+34  6.21587e+34
Cl  1.85065e+34  3.38713e+34  1.3222e+35
Na  4.82445e+34  6.07153e+34  8.67061e+34
Cl  7.49544e+34  3.5365e+34  4.12661e+34
Na  5.6463e+34  4.40871e+34  2.02303e+35
Cl  7.47934e+34  3.54219e+34  5.72631e+34
Na  5.57137e+34  1.46062e+35  7.11876e+34
Cl  4.6642e+34  4.03576e+34  1.31994e+35
Na  5.5924e+34  1.46155e+35  8.12843e+34
Cl  7.46936e+34  4.29372e+34  6.35191e+34
Na  5.66134e+34  3.37898e+34  2.02419e+35
Cl  7.45688e+34  4.28325e+34  3.50484e+34
Na  5.61411e+34  7.12413e+34  5.16157e+34
Cl  2.58494e+34  2.76194e+34  1.32403e+35
Na  5.1844e+34  7.21828e+34  9.88677e+34
Cl  2.0312e+34  1.01044e+35  6.29495e+34
Na  2.25156e+34  5.60877e+34  2.01863e+35
Cl  2.25071e+34  1.00328e+35  3.67643e+34
Na  5.07093e+34  3.67774e+34  9.03512e+34
Cl  2.68389e+34  2.7516e+34  1.32182e+35
Na  4.71906e+34  3.79079e+34  5.99959e+34
O  4.96639e+35  1.99417e+35  2.02331e+34
H  -8.11932e+35  1.02967e+37  -9.53382e+34
H  6.88213e+36  -3.38294e+36  -1.27626e+35
O  4.76744e+35  1.6591e+35  2.83452e+34
H  -1.78517e+35  1.01521e+37  -2.99281e+35
H  -6.09399e+35  6.08793e+35  -1.73125e+35
O  4.29051e+35  1.10885e+35  -2.5752e+34
H  -3.32686e+34  1.16455e+37  -2.7753e+35
H  7.29574e+36  -3.02425e+36  1.58719e+35
O  1.25425e+35  3.31268e+35  5.15929e+34
H  -3.76687e+34  9.34987e+36  -2.9551e+35
H  1.1665e+36  -1.80577e+36  -3.72984e+35
O  4.53392e+35  1.51689e+35  3.68529e+33
H  -1.1306e+36  1.00083e+37  3.31518e+35
H  6.83657e+36  -3.33783e+36  -1.76691e+35
O  4.74348e+35  2.00681e+35  -9.12278e+34
H  2.25505e+35  1.02308e+37  -3.96126e+35
H  7.00895e+36  -3.12756e+36  5.66993e+35
O  4.31295e+35  2.74118e+35  5.16639e+34
H  6.70325e+35  9.91791e+36  2.08886e+35
H  7.04043e+36  -3.78349e+36  -1.8542e+35
O  1.19358e+35  3.73668e+35  -4.59002e+34
H  2.70062e+35  9.25387e+36  3.26546e+35
H  1.36298e+36  -2.16651e+36  5.83605e+34
O  -4.92401e+35  1.9949e+35  2.31324e+34
H  7.8223e+35  1.03105e+37  -9.93118e+34
H  -6.8934e+36  -3.38082e+36  -1.52434e+35
O  -4.73389e+35  1.54983e+35  3.62465e+34
H  1.6665e+35  1.01789e+37  -3.93138e+35
H  -7.09428e+36  -3.08557e+36  -8.934e+34
O  -4.27508e+35  2.33146e+35  -9.15894e+33
H  -3.49747e+35  1.01401e+37  1.58707e+35
H  -7.15118e+36  -3.63356e+36  -6.36928e+34
O  -1.09137e+35  3.81869e+35  4.54447e+34
H  -3.74567e+35  9.24465e+36  -3.82174e+35
H  -1.39e+36  -2.14035e+36  -1.2228e+35
O  -4.94649e+35  2.0408e+35  -2.30833e+34
H  -2  9  -2
H  -2.81362  7.4186  -2
O  -2  5  -2
H  -2  6  -2
H  -2.81362  4.4186  -2
O  -2  2  -2
H  -2  3  -2
H  -2.81362  1.4186  -2
O  -2  -1  -2
H  -2  0  -2
H  -2.81362  -2.4186  -2
75
 Time: 6 fs -- step count: 6
Na  4.60097e+34  5.43859e+34  2.74469e+34
Cl  2.34265e+34  2.55788e+34  1.58988e+35
Na  5.17292e+34  5.66889e+34  1.5173e+35
Cl  2.95256e+34  1.22933e+35  7.10669e+34
Na  4.23184e+34  6.71205e+34  2.42147e+35
Cl  2.66748e+34  1.21325e+35  4.95029e+34
Na  5.29682e+34  7.0339e+34  7.45904e+34
Cl  2.22078e+34  4.06455e+34  1.58664e+35
Na  5.78933e+34  7.28583e+34  1.04047e+35
Cl  8.99453e+34  4.2438e+34  4.95193e+34
Na  6.77556e+34  5.29045e+34  2.42763e+35
Cl  8.97521e+34  4.25063e+34  6.87157e+34
Na  6.68564e+34  1.75274e+35  8.54251e+34
Cl  5.59704e+34  4.84291e+34  1.58393e+35
Na  6.71088e+34  1.75386e+35  9.75412e+34
Cl  8.96323e+34  5.15246e+34  7.62229e+34
Na  6.79361e+34  4.05478e+34  2.42903e+35
Cl  8.94825e+34  5.13991e+34  4.2058e+34
Na  6.73693e+34  8.54896e+34  6.19389e+34
Cl  3.10193e+34  3.31433e+34  1.58884e+35
Na  6.22128e+34  8.66194e+34  1.18641e+35
Cl  2.43745e+34  1.21252e+35  7.55394e+34
Na  2.70187e+34  6.73053e+34  2.42235e+35
Cl  2.70085e+34  1.20394e+35  4.41171e+34
Na  6.08512e+34  4.41329e+34  1.08421e+35
Cl  3.22067e+34  3.30192e+34  1.58619e+35
Na  5.66287e+34  4.54895e+34  7.19951e+34
O  5.95967e+35  2.39301e+35  2.42797e+34
H  -9.74319e+35  1.2356e+37  -1.14406e+35
H  8.25856e+36  -4.05952e+36  -1.53152e+35
O  5.72093e+35  1.99091e+35  3.40142e+34
H  -2.1422e+35  1.21826e+37  -3.59137e+35
H  -7.31278e+35  7.30552e+35  -2.0775e+35
O  5.14861e+35  1.33062e+35  -3.09024e+34
H  -3.99224e+34  1.39746e+37  -3.33036e+35
H  8.75489e+36  -3.6291e+36  1.90462e+35
O  1.5051e+35  3.97521e+35  6.19115e+34
H  -4.52025e+34  1.12198e+37  -3.54612e+35
H  1.3998e+36  -2.16693e+36  -4.4758e+35
O  5.4407e+35  1.82027e+35  4.42234e+33
H  -1.35672e+36  1.201e+37  3.97822e+35
H  8.20389e+36  -4.00539e+36  -2.12029e+35
O  5.69218e+35  2.40817e+35  -1.09473e+35
H  2.70606e+35  1.2277e+37  -4.75351e+35
H  8.41074e+36  -3.75307e+36  6.80391e+35
O  5.17554e+35  3.28942e+35  6.19967e+34
H  8.04389e+35  1.19015e+37  2.50664e+35
H  8.44852e+36  -4.54018e+36  -2.22504e+35
O  1.4323e+35  4.48402e+35  -5.50802e+34
H  3.24074e+35  1.11046e+37  3.91856e+35
H  1.63557e+36  -2.59982e+36  7.00325e+34
O  -5.90882e+35  2.39388e+35  2.77589e+34
H  9.38676e+35  1.23726e+37  -1.19174e+35
H  -8.27208e+36  -4.05698e+36  -1.82921e+35
O  -5.68067e+35  1.85979e+35  4.34958e+34
H  1.9998e+35  1.22146e+37  -4.71766e+35
H  -8.51313e+36  -3.70269e+36  -1.07208e+35
O  -5.1301e+35  2.79775e+35  -1.09907e+34
H  -4.19696e+35  1.21681e+37  1.90448e+35
H  -8.58142e+36  -4.36028e+36  -7.64314e+34
O  -1.30965e+35  4.58243e+35  5.45336e+34
H  -4.4948e+35  1.10936e+37  -4.58609e+35
H  -1.668e+36  -2.56842e+36  -1.46736e+35
O  -5.93579e+35  2.44896e+35  -2.77e+34
H  -2  9  -2
H  -2.81362  7.4186  -2
O  -2  5  -2
H  -2  6  -2
H  -2.81362  4.4186  -2
O  -2  2  -2
H  -2  3  -2
H  -2.81362  1.4186  -2
O  -2  -1  -2
H  -2  0  -2
H  -2.81362  -2.4186  -2
75
 Time: 7 fs -- step count: 7
Na  5.3678e+34  6.34502e+34  3.20214e+34
Cl  2.73309e+34  2.98419e+34  1.85486e+35
Na  6.03508e+34  6.6137e+34  1.77018e+35
Cl  3.44466e+34  1.43422e+35  8.29114e+34
Na  4.93715e+34  7.83073e+34  2.82505e+35
Cl  3.11206e+34  1.41546e+35  5.77533e+34
Na  6.17962e+34  8.20622e+34  8.70221e+34
Cl  2.59091e+34  4.74198e+34  1.85108e+35
Na  6.75422e+34  8.50014e+34  1.21389e+35
Cl  1.04936e+35  4.9511e+34  5.77726e+34
Na  7.90482e+34  6.1722e+34  2.83224e+35
Cl  1.04711e+35  4.95907e+34  8.01683e+34
Na  7.79992e+34  2.04487e+35  9.96626e+34
Cl  6.52988e+34  5.65006e+34  1.84791e+35
Na  7.82936e+34  2.04617e+35  1.13798e+35
Cl  1.04571e+35  6.01121e+34  8.89267e+34
Na  7.92588e+34  4.73057e+34  2.83387e+35
Cl  1.04396e+35  5.99656e+34  4.90677e+34
Na  7.85976e+34  9.97378e+34  7.2262e+34
Cl  3.61892e+34  3.86671e+34  1.85365e+35
Na  7.25816e+34  1.01056e+35  1.38415e+35
Cl  2.84369e+34  1.41461e+35  8.81293e+34
Na  3.15219e+34  7.85228e+34  2.82608e+35
Cl  3.15099e+34  1.40459e+35  5.147e+34
Na  7.0993e+34  5.14884e+34  1.26492e+35
Cl  3.75745e+34  3.85224e+34  1.85055e+35
Na  6.60669e+34  5.30711e+34  8.39942e+34
O  6.95294e+35  2.79184e+35  2.83263e+34
H  -1.13671e+36  1.44154e+37  -1.33473e+35
H  9.63498e+36  -4.73611e+36  -1.78677e+35
O  6.67442e+35  2.32273e+35  3.96833e+34
H  -2.49923e+35  1.4213e+37  -4.18993e+35
H  -8.53158e+35  8.5231e+35  -2.42374e+35
O  6.00671e+35  1.55239e+35  -3.60528e+34
H  -4.65761e+34  1.63037e+37  -3.88542e+35
H  1.0214e+37  -4.23395e+36  2.22206e+35
O  1.75595e+35  4.63775e+35  7.22301e+34
H  -5.27362e+34  1.30898e+37  -4.13715e+35
H  1.6331e+36  -2.52808e+36  -5.22177e+35
O  6.34749e+35  2.12365e+35  5.1594e+33
H  -1.58284e+36  1.40117e+37  4.64125e+35
H  9.5712e+36  -4.67296e+36  -2.47368e+35
O  6.64088e+35  2.80953e+35  -1.27719e+35
H  3.15707e+35  1.43232e+37  -5.54576e+35
H  9.81253e+36  -4.37858e+36  7.9379e+35
O  6.03814e+35  3.83765e+35  7.23295e+34
H  9.38454e+35  1.38851e+37  2.92441e+35
H  9.85661e+36  -5.29688e+36  -2.59588e+35
O  1.67102e+35  5.23135e+35  -6.42603e+34
H  3.78087e+35  1.29554e+37  4.57165e+35
H  1.90817e+36  -3.03312e+36  8.17046e+34
O  -6.89362e+35  2.79286e+35  3.23854e+34
H  1.09512e+36  1.44347e+37  -1.39036e+35
H  -9.65075e+36  -4.73314e+36  -2.13408e+35
O  -6.62745e+35  2.16976e+35  5.07451e+34
H  2.3331e+35  1.42504e+37  -5.50394e+35
H  -9.93199e+36  -4.3198e+36  -1.25076e+35
O  -5.98511e+35  3.26404e+35  -1.28225e+34
H  -4.89645e+35  1.41961e+37  2.22189e+35
H  -1.00117e+37  -5.08699e+36  -8.917e+34
O  -1.52792e+35  5.34617e+35  6.36225e+34
H  -5.24393e+35  1.29425e+37  -5.35044e+35
H  -1.946e+36  -2.99649e+36  -1.71192e+35
O  -6.92509e+35  2.85712e+35  -3.23167e+34
H  -2  9  -2
H  -2.81362  7.4186  -2
O  -2  5  -2
H  -2  6  -2
H  -2.81362  4.4186  -2
O  -2  2  -2
H  -2  3  -2
H  -2.81362  1.4186  -2
O  -2  -1  -2
H  -2  0  -2
H  -2.81362  -2.4186  -2
75
 Time: 8 fs -- step count: 8
Na  6.13462e+34  7.25145e+34  3.65959e+34
Cl  3.12353e+34  3.4105e+34  2.11985e+35
Na  6.89723e+34  7.55852e+34  2.02307e+35
Cl  3.93675e+34  1.63911e+35  9.47559e+34
Na  5.64245e+34  8.9494e+34  3.22862e+35
Cl  3.55664e+34  1.61767e+35  6.60038e+34
Na  7.06243e+34  9.37854e+34  9.94539e+34
Cl  2.96104e+34  5.4194e+34  2.11551e+35
Na  7.71911e+34  9.71445e+34  1.3873e+35
Cl  1.19927e+35  5.6584e+34  6.60258e+34
Na  9.03408e+34  7.05394e+34  3.23684e+35
Cl  1.19669e+35  5.66751e+34  9.16209e+34
Na  8.91419e+34  2.33699e+35  1.139e+35
Cl  7.46272e+34  6.45721e+34  2.1119e+35
Na  8.94784e+34  2.33848e+35  1.30055e+35
Cl  1.1951e+35  6.86995e+34  1.01631e+35
Na  9.05815e+34  5.40637e+34  3.23871e+35
Cl  1.1931e+35  6.85321e+34  5.60774e+34
Na  8.98258e+34  1.13986e+35  8.25852e+34
Cl  4.13591e+34  4.4191e+34  2.11845e+35
Na  8.29504e+34  1.15492e+35  1.58188e+35
Cl  3.24993e+34  1.6167e+35  1.00719e+35
Na  3.6025e+34  8.97404e+34  3.2298e+35
Cl  3.60113e+34  1.60525e+35  5.88228e+34
Na  8.11349e+34  5.88439e+34  1.44562e+35
Cl  4.29422e+34  4.40256e+34  2.11492e+35
Na  7.5505e+34  6.06527e+34  9.59934e+34
O  7.94622e+35  3.19067e+35  3.2373e+34
H  -1.29909e+36  1.64747e+37  -1.52541e+35
H  1.10114e+37  -5.4127e+36  -2.04202e+35
O  7.6279e+35  2.65455e+35  4.53523e+34
H  -2.85627e+35  1.62434e+37  -4.78849e+35
H  -9.75038e+35  9.74069e+35  -2.76999e+35
O  6.86481e+35  1.77416e+35  -4.12032e+34
H  -5.32298e+34  1.86328e+37  -4.44048e+35
H  1.16732e+37  -4.8388e+36  2.5395e+35
O  2.0068e+35  5.30029e+35  8.25486e+34
H  -6.027e+34  1.49598e+37  -4.72817e+35
H  1.8664e+36  -2.88924e+36  -5.96774e+35
O  7.25427e+35  2.42703e+35  5.89646e+33
H  -1.80896e+36  1.60133e+37  5.30429e+35
H  1.09385e+37  -5.34052e+36  -2.82706e+35
O  7.58958e+35  3.21089e+35  -1.45964e+35
H  3.60808e+35  1.63693e+37  -6.33801e+35
H  1.12143e+37  -5.00409e+36  9.07188e+35
O  6.90073e+35  4.38589e+35  8.26623e+34
H  1.07252e+36  1.58687e+37  3.34218e+35
H  1.12647e+37  -6.05358e+36  -2.96672e+35
O  1.90973e+35  5.97869e+35  -7.34403e+34
H  4.32099e+35  1.48062e+37  5.22474e+35
H  2.18076e+36  -3.46642e+36  9.33767e+34
O  -7.87842e+35  3.19183e+35  3.70119e+34
H  1.25157e+36  1.64968e+37  -1.58899e+35
H  -1.10294e+37  -5.40931e+36  -2.43895e+35
O  -7.57423e+35  2.47972e+35  5.79944e+34
H  2.6664e+35  1.62862e+37  -6.29022e+35
H  -1.13508e+37  -4.93692e+36  -1.42944e+35
O  -6.84013e+35  3.73033e+35  -1.46543e+34
H  -5.59595e+35  1.62241e+37  2.53931e+35
H  -1.14419e+37  -5.8137e+36  -1.01909e+35
O  -1.7462e+35  6.10991e+35  7.27115e+34
H  -5.99307e+35  1.47914e+37  -6.11479e+35
H  -2.224e+36  -3.42456e+36  -1.95648e+35
O  -7.91439e+35  3.26528e+35  -3.69333e+34
H  -2  9  -2
H  -2.81362  7.4186  -2
O  -2  5  -2
H  -2  6  -2
H  -2.81362  4.4186  -2
O  -2  2  -2
H  -2  3  -2
H  -2.81362  1.4186  -2
O  -2  -1  -2
H  -2  0  -2
H  -2.81362  -2.4186  -2
75
 Time: 9 fs -- step count: 9
Na  6.90145e+34  8.15788e+34  4.11704e+34
Cl  3.51397e+34  3.83682e+34  2.38483e+35
Na  7.75938e+34  8.50333e+34  2.27595e+35
Cl  4.42884e+34  1.844e+35  1.066e+35
Na  6.34776e+34  1.00681e+35  3.6322e+35
Cl  4.00122e+34  1.81988e+35  7.42543e+34
Na  7.94523e+34  1.05509e+35  1.11886e+35
Cl  3.33117e+34  6.09683e+34  2.37995e+35
Na  8.684e+34  1.09288e+35  1.56071e+35
Cl  1.34918e+35  6.3657e+34  7.4279e+34
Na  1.01633e+35  7.93568e+34  3.64145e+35
Cl  1.34628e+35  6.37594e+34  1.03074e+35
Na  1.00285e+35  2.62912e+35  1.28138e+35
Cl  8.39556e+34  7.26437e+34  2.37589e+35
Na  1.00663e+35  2.63079e+35  1.46312e+35
Cl  1.34448e+35  7.72869e+34  1.14334e+35
Na  1.01904e+35  6.08216e+34  3.64355e+35
Cl  1.34224e+35  7.70986e+34  6.30871e+34
Na  1.01054e+35  1.28234e+35  9.29083e+34
Cl  4.6529e+34  4.97149e+34  2.38326e+35
Na  9.33192e+34  1.29929e+35  1.77962e+35
Cl  3.65617e+34  1.81879e+35  1.13309e+35
Na  4.05281e+34  1.00958e+35  3.63353e+35
Cl  4.05127e+34  1.8059e+35  6.61757e+34
Na  9.12767e+34  6.61994e+34  1.62632e+35
Cl  4.831e+34  4.95288e+34  2.37928e+35
Na  8.49431e+34  6.82343e+34  1.07993e+35
O  8.9395e+35  3.58951e+35  3.64196e+34
H  -1.46148e+36  1.85341e+37  -1.71609e+35
H  1.23878e+37  -6.08929e+36  -2.29728e+35
O  8.58139e+35  2.98637e+35  5.10213e+34
H  -3.2133e+35  1.82739e+37  -5.38705e+35
H  -1.09692e+36  1.09583e+36  -3.11624e+35
O  7.72291e+35  1.99593e+35  -4.63536e+34
H  -5.98836e+34  2.09619e+37  -4.99555e+35
H  1.31323e+37  -5.44366e+36  2.85694e+35
O  2.25765e+35  5.96282e+35  9.28672e+34
H  -6.78037e+34  1.68298e+37  -5.31919e+35
H  2.0997e+36  -3.25039e+36  -6.71371e+35
O  8.16105e+35  2.7304e+35  6.63352e+33
H  -2.03508e+36  1.8015e+37  5.96732e+35
H  1.23058e+37  -6.00809e+36  -3.18044e+35
O  8.53827e+35  3.61226e+35  -1.6421e+35
H  4.05909e+35  1.84155e+37  -7.13026e+35
H  1.26161e+37  -5.6296e+36  1.02059e+36
O  7.76332e+35  4.93413e+35  9.29951e+34
H  1.20658e+36  1.78522e+37  3.75995e+35
H  1.26728e+37  -6.81028e+36  -3.33756e+35
O  2.14845e+35  6.72603e+35  -8.26203e+34
H  4.86112e+35  1.6657e+37  5.87783e+35
H  2.45336e+36  -3.89972e+36  1.05049e+35
O  -8.86323e+35  3.59081e+35  4.16383e+34
H  1.40801e+36  1.85589e+37  -1.78761e+35
H  -1.24081e+37  -6.08547e+36  -2.74382e+35
O  -8.52101e+35  2.78969e+35  6.52437e+34
H  2.9997e+35  1.8322e+37  -7.07649e+35
H  -1.27697e+37  -5.55403e+36  -1.60812e+35
O  -7.69515e+35  4.19662e+35  -1.64861e+34
H  -6.29544e+35  1.82521e+37  2.85672e+35
H  -1.28721e+37  -6.54042e+36  -1.14647e+35
O  -1.96447e+35  6.87365e+35  8.18004e+34
H  -6.7422e+35  1.66404e+37  -6.87914e+35
H  -2.502e+36  -3.85263e+36  -2.20104e+35
O  -8.90369e+35  3.67344e+35  -4.155e+34
H  -2  9  -2
H  -2.81362  7.4186  -2
O  -2  5  -2
H  -2  6  -2
H  -2.81362  4.4186  -2
O  -2  2  -2
H  -2  3  -2
H  -2.81362  1.4186  -2
O  -2  -1  -2
H  -2  0  -2
H  -2.81362  -2.4186  -2
75
 Time: 10 fs -- step count: 10
Na  7.66828e+34  9.06431e+34  4.57448e+34
Cl  3.90441e+34  4.26313e+34  2.64981e+35
Na  8.62154e+34  9.44815e+34  2.52883e+35
Cl  4.92094e+34  2.04889e+35  1.18445e+35
Na  7.05307e+34  1.11868e+35  4.03578e+35
Cl  4.4458e+34  2.02209e+35  8.25048e+34
Na  8.82803e+34  1.17232e+35  1.24317e+35
Cl  3.7013e+34  6.77425e+34  2.64439e+35
Na  9.64889e+34  1.21431e+35  1.73412e+35
Cl  1.49909e+35  7.073e+34  8.25322e+34
Na  1.12926e+35  8.81742e+34  4.04605e+35
Cl  1.49587e+35  7.08438e+34  1.14526e+35
Na  1.11427e+35  2.92124e+35  1.42375e+35
Cl  9.3284e+34  8.07152e+34  2.63988e+35
Na  1.11848e+35  2.9231e+35  1.62569e+35
Cl  1.49387e+35  8.58744e+34  1.27038e+35
Na  1.13227e+35  6.75796e+34  4.04839e+35
Cl  1.49138e+35  8.56651e+34  7.00967e+34
Na  1.12282e+35  1.42483e+35  1.03231e+35
Cl  5.16988e+34  5.52388e+34  2.64807e+35
Na  1.03688e+35  1.44366e+35  1.97735e+35
Cl  4.06241e+34  2.02087e+35  1.25899e+35
Na  4.50312e+34  1.12175e+35  4.03725e+35
Cl  4.50141e+34  2.00656e+35  7.35286e+34
Na  1.01419e+35  7.35549e+34  1.80702e+35
Cl  5.36778e+34  5.5032e+34  2.64365e+35
Na  9.43812e+34  7.58159e+34  1.19992e+35
O  9.93278e+35  3.98834e+35  4.04662e+34
H  -1.62386e+36  2.05934e+37  -1.90676e+35
H  1.37643e+37  -6.76587e+36  -2.55253e+35
O  9.53488e+35  3.31819e+35  5.66904e+34
H  -3.57033e+35  2.03043e+37  -5.98561e+35
H  -1.2188e+36  1.21759e+36  -3.46249e+35
O  8.58102e+35  2.2177e+35  -5.1504e+34
H  -6.65373e+34  2.3291e+37  -5.55061e+35
H  1.45915e+37  -6.04851e+36  3.17437e+35
O  2.5085e+35  6.62536e+35  1.03186e+35
H  -7.53375e+34  1.86997e+37  -5.91021e+35
H  2.333e+36  -3.61155e+36  -7.45967e+35
O  9.06784e+35  3.03378e+35  7.37057e+33
H  -2.2612e+36  2.00167e+37  6.63036e+35
H  1.36731e+37  -6.67565e+36  -3.53382e+35
O  9.48697e+35  4.01362e+35  -1.82456e+35
H  4.5101e+35  2.04617e+37  -7.92251e+35
H  1.40179e+37  -6.25511e+36  1.13399e+36
O  8.62591e+35  5.48236e+35  1.03328e+35
H  1.34065e+36  1.98358e+37  4.17773e+35
H  1.40809e+37  -7.56697e+36  -3.7084e+35
O  2.38717e+35  7.47336e+35  -9.18004e+34
H  5.40124e+35  1.85077e+37  6.53093e+35
H  2.72595e+36  -4.33303e+36  1.16721e+35
O  -9.84803e+35  3.98979e+35  4.62648e+34
H  1.56446e+36  2.0621e+37  -1.98624e+35
H  -1.37868e+37  -6.76163e+36  -3.04868e+35
O  -9.46779e+35  3.09965e+35  7.2493e+34
H  3.333e+35  2.03577e+37  -7.86277e+35
H  -1.41886e+37  -6.17115e+36  -1.7868e+35
O  -8.55016e+35  4.66292e+35  -1.83179e+34
H  -6.99493e+35  2.02801e+37  3.17413e+35
H  -1.43024e+37  -7.26713e+36  -1.27386e+35
O  -2.18275e+35  7.63739e+35  9.08893e+34
H  -7.49133e+35  1.84893e+37  -7.64349e+35
H  -2.78e+36  -4.2807e+36  -2.4456e+35
O  -9.89298e+35  4.0816e+35  -4.61667e+34